/*--------------------------------*- C++ -*----------------------------------*\
| =========                 |                                                 |
| \\      /  F ield         | OpenFOAM: The Open Source CFD Toolbox           |
|  \\    /   O peration     | Version:  3.0.1                                 |
|   \\  /    A nd           | Web:      www.OpenFOAM.org                      |
|    \\/     M anipulation  |                                                 |
\*---------------------------------------------------------------------------*/
FoamFile
{
    version     2.0;
    format      ascii;
    class       volScalarField;
    location    "25";
    object      p;
}
// * * * * * * * * * * * * * * * * * * * * * * * * * * * * * * * * * * * * * //

dimensions      [0 2 -2 0 0 0 0];

internalField   nonuniform List<scalar> 
480
(
-1.9833875e-08
-2.7134274e-08
-7.3953741e-08
-8.3853621e-08
-2.9984077e-08
-3.0948741e-08
-6.1557735e-08
-7.597112e-08
-3.4536497e-08
-3.1755319e-08
-5.3659333e-08
-6.922887e-08
-3.9561547e-08
-3.5798549e-08
-4.4498464e-08
-5.8141774e-08
-3.8541551e-08
-3.5832066e-08
-4.0249734e-08
-5.0230499e-08
-3.4130665e-08
-3.2843534e-08
-3.8231431e-08
-4.4669296e-08
-2.9501836e-08
-2.9369616e-08
-3.5421494e-08
-3.9100784e-08
-2.5129798e-08
-2.5856606e-08
-3.1746797e-08
-3.3393341e-08
-2.1045465e-08
-2.2332419e-08
-2.7612659e-08
-2.7860134e-08
-1.7313029e-08
-1.8890328e-08
-2.3348525e-08
-2.2722539e-08
-1.3985801e-08
-1.5648577e-08
-1.9201797e-08
-1.8101608e-08
-1.1083706e-08
-1.2696031e-08
-1.5349384e-08
-1.4054018e-08
-8.6008339e-09
-1.008224e-08
-1.1903679e-08
-1.0591755e-08
-6.5141094e-09
-7.8216066e-09
-8.9198123e-09
-7.6942721e-09
-4.7896558e-09
-5.9044821e-09
-6.4073345e-09
-5.3185129e-09
-3.3882646e-09
-4.3098898e-09
-4.3412785e-09
-3.4072941e-09
-2.2698237e-09
-3.0145006e-09
-2.6741801e-09
-1.8963534e-09
-1.397771e-09
-1.9902896e-09
-1.3540796e-09
-7.2011416e-10
-7.3723265e-10
-1.2088159e-09
-3.2794604e-10
1.8460302e-10
-2.5979241e-10
-6.4119176e-10
4.5985071e-10
8.7512191e-10
5.9323428e-11
-2.611944e-10
1.0625127e-09
1.4062666e-09
2.4029892e-10
-4.7054197e-11
1.528824e-09
1.8285796e-09
2.9838475e-10
1.7714179e-11
1.9027522e-09
2.181963e-09
2.4394805e-10
-5.639874e-11
2.2239974e-09
2.505438e-09
8.2256972e-11
-2.6553028e-10
2.528915e-09
2.8362614e-09
-1.8686124e-10
-6.1312505e-10
2.851691e-09
3.2111503e-09
-5.6950245e-10
-1.1107439e-09
3.2255894e-09
3.6674745e-09
-1.0782332e-09
-1.7789447e-09
3.6841933e-09
4.2451082e-09
-1.7326212e-09
-2.6481601e-09
4.2626198e-09
4.9879624e-09
-2.5599088e-09
-3.7601151e-09
4.9990046e-09
5.9459701e-09
-3.5967532e-09
-5.1696122e-09
5.9361957e-09
7.1773098e-09
-4.8894663e-09
-6.9457463e-09
7.122808e-09
8.750264e-09
-6.4947739e-09
-9.1733781e-09
8.6144714e-09
1.074537e-08
-8.4805161e-09
-1.1954692e-08
1.0475167e-08
1.3257814e-08
-1.0925827e-08
-1.541025e-08
1.2778215e-08
1.6399743e-08
-1.3920542e-08
-1.9679747e-08
1.5606683e-08
2.0302329e-08
-1.7563484e-08
-2.4921459e-08
1.9052929e-08
2.5117357e-08
-2.1959224e-08
-3.1310645e-08
2.3216828e-08
3.1017946e-08
-2.7212744e-08
-3.9036222e-08
2.8202059e-08
3.8197831e-08
-3.342148e-08
-4.829521e-08
3.4109756e-08
4.6868422e-08
-4.0664233e-08
-5.9284282e-08
4.1028814e-08
5.7252615e-08
-4.8986735e-08
-7.218769e-08
4.902234e-08
6.9574092e-08
-5.8384174e-08
-8.7160686e-08
5.811028e-08
8.4040659e-08
-6.8781918e-08
-1.0430754e-07
6.8249192e-08
1.0082017e-07
-8.0017061e-08
-1.2365342e-07
7.9311653e-08
1.2000794e-07
-9.1825066e-08
-1.4511021e-07
9.1069659e-08
1.4158566e-07
-1.038374e-07
-1.6843769e-07
1.0318825e-07
1.6537378e-07
-1.1559662e-07
-1.932046e-07
1.1523649e-07
1.9098315e-07
-1.2659387e-07
-2.1875793e-07
1.2672181e-07
2.1777574e-07
-1.3632923e-07
-2.4421329e-07
1.371489e-07
2.4484978e-07
-1.4438738e-07
-2.6848159e-07
1.4609679e-07
2.7106615e-07
-1.5051274e-07
-2.9034475e-07
1.5329774e-07
2.9512977e-07
-1.546643e-07
-3.0858382e-07
1.5869736e-07
3.1572859e-07
-1.5703692e-07
-3.2214963e-07
1.6247909e-07
3.3171701e-07
-1.5804183e-07
-3.3034457e-07
1.6504109e-07
3.4230643e-07
-1.5823165e-07
-3.3293428e-07
1.6690446e-07
3.4717282e-07
-1.5823786e-07
-3.3008132e-07
1.6861319e-07
3.4636589e-07
-1.5915291e-07
-3.2240868e-07
1.7107978e-07
3.4034866e-07
-1.6383009e-07
-3.1234696e-07
1.7690845e-07
3.3140594e-07
-1.7604091e-07
-3.0795838e-07
1.8955239e-07
3.2744694e-07
-2.9267661e-08
-2.9650427e-08
-7.4417566e-08
-7.9241554e-08
-3.8923584e-08
-3.2328392e-08
-6.443451e-08
-7.313317e-08
-4.3123615e-08
-3.220037e-08
-5.9276148e-08
-6.8786551e-08
-4.8939543e-08
-3.712271e-08
-5.0826042e-08
-5.8668173e-08
-4.7691412e-08
-3.7763552e-08
-4.7060897e-08
-5.1716527e-08
-4.2887951e-08
-3.5421142e-08
-4.4689941e-08
-4.6517622e-08
-3.7534495e-08
-3.23733e-08
-4.1210862e-08
-4.1004205e-08
-3.2201343e-08
-2.9002283e-08
-3.6782425e-08
-3.5223883e-08
-2.707008e-08
-2.5387151e-08
-3.1902329e-08
-2.9564151e-08
-2.2313995e-08
-2.1699661e-08
-2.6940975e-08
-2.4273246e-08
-1.8048717e-08
-1.8122559e-08
-2.2165292e-08
-1.9486515e-08
-1.4323892e-08
-1.4792704e-08
-1.7759923e-08
-1.52702e-08
-1.1141684e-08
-1.179909e-08
-1.383368e-08
-1.1642008e-08
-8.4735746e-09
-9.1881787e-09
-1.0435787e-08
-8.5851951e-09
-6.2749364e-09
-6.9687171e-09
-7.5703786e-09
-6.0595146e-09
-4.4927144e-09
-5.1249446e-09
-5.2134461e-09
-4.0099882e-09
-3.0754381e-09
-3.6276268e-09
-3.318343e-09
-2.3738765e-09
-1.9653812e-09
-2.4407934e-09
-1.821258e-09
-1.0859834e-09
-1.1210497e-09
-1.5281095e-09
-6.551646e-10
-8.3154439e-11
-5.0549469e-10
-8.5468667e-10
2.4423744e-10
6.9452414e-10
-8.5474684e-11
-3.8964202e-10
9.3420357e-10
1.2994829e-09
1.660152e-10
-1.0914477e-10
1.4676559e-09
1.7797182e-09
2.6993963e-10
6.4154593e-12
1.8923632e-09
2.1825703e-09
2.4110075e-10
-2.9679738e-11
2.2513348e-09
2.549405e-09
8.8032221e-11
-2.1114598e-10
2.5838068e-09
2.9191873e-09
-1.8722062e-10
-5.393361e-10
2.9264848e-09
3.330788e-09
-5.8949654e-10
-1.0240402e-09
3.3149294e-09
3.8237661e-09
-1.1309545e-09
-1.6843814e-09
3.7848092e-09
4.4405177e-09
-1.8315493e-09
-2.5497182e-09
4.37318e-09
5.2277455e-09
-2.7202035e-09
-3.6610858e-09
5.12001e-09
6.2384648e-09
-3.8354163e-09
-5.0729788e-09
6.0699e-09
7.5343099e-09
-5.2261038e-09
-6.8546243e-09
7.2731681e-09
9.1873728e-09
-6.9522508e-09
-9.0915081e-09
8.7871013e-09
1.1282329e-08
-9.0854019e-09
-1.1886991e-08
1.0677256e-08
1.391879e-08
-1.1708585e-08
-1.5363609e-08
1.3018373e-08
1.721352e-08
-1.4915329e-08
-1.9663517e-08
1.5894661e-08
2.130231e-08
-1.8807422e-08
-2.4948213e-08
1.9399152e-08
2.6341253e-08
-2.3490961e-08
-3.139693e-08
2.3631673e-08
3.2507025e-08
-2.9070152e-08
-3.9203238e-08
2.869482e-08
3.9995554e-08
-3.5638349e-08
-4.8569289e-08
3.4687263e-08
4.9018284e-08
-4.3265922e-08
-5.9697042e-08
4.1693702e-08
5.9795035e-08
-5.1984857e-08
-7.2775645e-08
4.9771065e-08
7.2542209e-08
-6.177061e-08
-8.7964074e-08
5.8931031e-08
8.7455009e-08
-7.2522659e-08
-1.053681e-07
6.9120014e-08
1.0468236e-07
-8.4046664e-08
-1.2501091e-07
8.0199169e-08
1.2429362e-07
-9.604273e-08
-1.4679752e-07
9.192891e-08
1.4623748e-07
-1.0810581e-07
-1.7047467e-07
1.0396418e-07
1.7029529e-07
-1.1974463e-07
-1.95591e-07
1.1586755e-07
1.9603486e-07
-1.3042393e-07
-2.2146634e-07
1.2714584e-07
2.2277506e-07
-1.3962969e-07
-2.4718329e-07
1.373113e-07
2.4957629e-07
-1.4694926e-07
-2.7161688e-07
1.4595998e-07
2.7527349e-07
-1.5214933e-07
-2.9351477e-07
1.5285074e-07
2.9856463e-07
-1.5523151e-07
-3.1163173e-07
1.5796342e-07
3.1815598e-07
-1.5645153e-07
-3.2490707e-07
1.615189e-07
3.3294937e-07
-1.5629544e-07
-3.3265302e-07
1.6394947e-07
3.4223321e-07
-1.5539917e-07
-3.3467455e-07
1.6579798e-07
3.4579065e-07
-1.5448951e-07
-3.3122164e-07
1.6760841e-07
3.4382235e-07
-1.5475318e-07
-3.2308254e-07
1.7026074e-07
3.3701486e-07
-1.5909317e-07
-3.1283816e-07
1.7628159e-07
3.2781775e-07
-1.7129385e-07
-3.0874185e-07
1.889491e-07
3.2436486e-07
)
;

boundaryField
{
    movingWall
    {
        type            zeroGradient;
    }
    CPLReceiveMD
    {
        type            zeroGradient;
    }
    streamwiseIn
    {
        type            cyclic;
    }
    streamwiseOut
    {
        type            cyclic;
    }
    front
    {
        type            cyclic;
    }
    back
    {
        type            cyclic;
    }
    procBoundary1to0
    {
        type            processor;
        value           nonuniform List<scalar> 
240
(
-2.7054216e-08
-2.8913051e-08
-7.1017933e-08
-7.9059404e-08
-3.6522604e-08
-3.1444368e-08
-6.0698585e-08
-7.2802228e-08
-4.0508197e-08
-3.1139634e-08
-5.5459661e-08
-6.821878e-08
-4.6170146e-08
-3.5969189e-08
-4.7189933e-08
-5.7899923e-08
-4.494268e-08
-3.6578673e-08
-4.3772285e-08
-5.0839052e-08
-4.0320442e-08
-3.4286038e-08
-4.183184e-08
-4.5623063e-08
-3.5259871e-08
-3.1338775e-08
-3.8807138e-08
-4.0162849e-08
-3.0271876e-08
-2.80921e-08
-3.4815756e-08
-3.4479158e-08
-2.5488643e-08
-2.4617098e-08
-3.0330952e-08
-2.8935401e-08
-2.1051649e-08
-2.107493e-08
-2.5711235e-08
-2.3762355e-08
-1.7062491e-08
-1.7634207e-08
-2.1220278e-08
-1.908459e-08
-1.3568899e-08
-1.4426655e-08
-1.704502e-08
-1.4962889e-08
-1.0575001e-08
-1.1534067e-08
-1.3301769e-08
-1.1413181e-08
-8.0558846e-09
-8.9970945e-09
-1.0048068e-08
-8.419131e-09
-5.971566e-09
-6.8301387e-09
-7.2952197e-09
-5.9420369e-09
-4.2764548e-09
-5.0259361e-09
-5.0198344e-09
-3.9289279e-09
-2.9219605e-09
-3.5583937e-09
-3.1809943e-09
-2.3192884e-09
-1.8597206e-09
-2.3937368e-09
-1.7254793e-09
-1.0502562e-09
-1.0496679e-09
-1.4971125e-09
-5.8976853e-10
-6.0435138e-11
-4.5750598e-10
-8.3514487e-10
2.8782945e-10
7.0769058e-10
-5.3786208e-11
-3.7799991e-10
9.6320134e-10
1.3065214e-09
1.86527e-10
-1.0248081e-10
1.4865897e-09
1.7828341e-09
2.8291412e-10
9.8572818e-12
1.9044577e-09
2.1833133e-09
2.4907262e-10
-2.824628e-11
2.2588595e-09
2.5488276e-09
9.2742567e-11
-2.1090167e-10
2.588328e-09
2.9179503e-09
-1.8459291e-10
-5.3974657e-10
2.9290701e-09
3.3293003e-09
-5.8816578e-10
-1.0247673e-09
3.3162961e-09
3.8222643e-09
-1.1304056e-09
-1.6852196e-09
3.7854313e-09
4.4391278e-09
-1.8314483e-09
-2.5505492e-09
4.3733656e-09
5.2265252e-09
-2.7203336e-09
-3.6618473e-09
5.119955e-09
6.2374311e-09
-3.8356532e-09
-5.0736434e-09
6.0697256e-09
7.5334567e-09
-5.2263754e-09
-6.8551855e-09
7.2729469e-09
9.1866824e-09
-6.9525171e-09
-9.091971e-09
8.7868745e-09
1.1281779e-08
-9.0856429e-09
-1.1887366e-08
1.0677046e-08
1.3918357e-08
-1.1708793e-08
-1.5363906e-08
1.3018189e-08
1.7213184e-08
-1.4915502e-08
-1.9663749e-08
1.5894505e-08
2.1302051e-08
-1.8807563e-08
-2.4948393e-08
1.9399024e-08
2.6341055e-08
-2.3491074e-08
-3.1397068e-08
2.363157e-08
3.2506875e-08
-2.9070241e-08
-3.9203343e-08
2.8694739e-08
3.999544e-08
-3.5638418e-08
-4.8569369e-08
3.4687199e-08
4.9018199e-08
-4.3265975e-08
-5.9697102e-08
4.1693652e-08
5.9794971e-08
-5.1984898e-08
-7.2775691e-08
4.9771027e-08
7.2542161e-08
-6.177064e-08
-8.7964108e-08
5.8931002e-08
8.7454974e-08
-7.2522682e-08
-1.0536812e-07
6.9119992e-08
1.0468233e-07
-8.4046681e-08
-1.2501093e-07
8.0199153e-08
1.242936e-07
-9.6042743e-08
-1.4679754e-07
9.1928898e-08
1.4623746e-07
-1.0810582e-07
-1.7047468e-07
1.0396417e-07
1.7029528e-07
-1.1974464e-07
-1.9559101e-07
1.1586754e-07
1.9603485e-07
-1.3042393e-07
-2.2146634e-07
1.2714584e-07
2.2277505e-07
-1.396297e-07
-2.471833e-07
1.373113e-07
2.4957629e-07
-1.4694926e-07
-2.7161688e-07
1.4595997e-07
2.7527349e-07
-1.5214933e-07
-2.9351478e-07
1.5285074e-07
2.9856463e-07
-1.5523151e-07
-3.1163174e-07
1.5796342e-07
3.1815598e-07
-1.5645153e-07
-3.2490707e-07
1.615189e-07
3.3294936e-07
-1.5629544e-07
-3.3265302e-07
1.6394947e-07
3.4223321e-07
-1.5539917e-07
-3.3467455e-07
1.6579798e-07
3.4579065e-07
-1.5448951e-07
-3.3122164e-07
1.6760841e-07
3.4382235e-07
-1.5475318e-07
-3.2308254e-07
1.7026074e-07
3.3701486e-07
-1.5909317e-07
-3.1283816e-07
1.7628159e-07
3.2781775e-07
-1.7129385e-07
-3.0874185e-07
1.889491e-07
3.2436486e-07
)
;
    }
    procBoundary1to0throughback
    {
        type            processorCyclic;
        value           nonuniform List<scalar> 
240
(
-3.8968907e-08
-4.5192507e-08
-4.3573611e-08
-4.7678448e-08
-4.5665292e-08
-4.0201858e-08
-3.4473111e-08
-2.9100451e-08
-2.416924e-08
-1.9742746e-08
-1.5858917e-08
-1.2519167e-08
-9.6967637e-09
-7.3470302e-09
-5.4161269e-09
-3.8534166e-09
-2.6099259e-09
-1.6437663e-09
-9.1637376e-10
-3.8986231e-10
-3.4385296e-11
1.7323936e-10
2.5071014e-10
2.1029045e-10
5.8674821e-11
-2.032448e-10
-5.8077208e-10
-1.0858909e-09
-1.7377616e-09
-2.5633804e-09
-3.5990697e-09
-4.8909863e-09
-6.4957518e-09
-8.4811296e-09
-1.0926201e-08
-1.3920758e-08
-1.7563601e-08
-2.1959279e-08
-2.7212761e-08
-3.3421476e-08
-4.0664218e-08
-4.8986715e-08
-5.8384152e-08
-6.8781898e-08
-8.0017042e-08
-9.182505e-08
-1.0383739e-07
-1.1559661e-07
-1.2659386e-07
-1.3632922e-07
-1.4438738e-07
-1.5051273e-07
-1.546643e-07
-1.5703692e-07
-1.5804182e-07
-1.5823165e-07
-1.5823786e-07
-1.5915291e-07
-1.6383009e-07
-1.7604091e-07
-2.9202022e-08
-3.4338466e-08
-3.6366979e-08
-4.1182481e-08
-4.1436859e-08
-3.8237571e-08
-3.4250555e-08
-3.0081608e-08
-2.586954e-08
-2.1774958e-08
-1.7948072e-08
-1.4490556e-08
-1.1454294e-08
-8.8516219e-09
-6.6676855e-09
-4.8716082e-09
-3.4247942e-09
-2.2868547e-09
-1.4199244e-09
-7.8992834e-10
-3.6685603e-10
-1.2199361e-10
-3.5176085e-11
-9.3549354e-11
-2.9148709e-10
-6.3115281e-10
-1.12318e-09
-1.7874564e-09
-2.6539327e-09
-3.7639881e-09
-5.1721743e-09
-6.9474081e-09
-9.1744203e-09
-1.1955304e-08
-1.5410631e-08
-1.9679973e-08
-2.4921583e-08
-3.1310704e-08
-3.9036243e-08
-4.8295209e-08
-5.9284268e-08
-7.2187671e-08
-8.7160666e-08
-1.0430752e-07
-1.236534e-07
-1.451102e-07
-1.6843768e-07
-1.9320459e-07
-2.1875792e-07
-2.4421328e-07
-2.6848159e-07
-2.9034474e-07
-3.0858381e-07
-3.2214963e-07
-3.3034456e-07
-3.3293428e-07
-3.3008132e-07
-3.2240868e-07
-3.1234696e-07
-3.0795838e-07
-7.5824248e-08
-6.3491558e-08
-5.5876905e-08
-4.6992238e-08
-4.2893207e-08
-4.0894601e-08
-3.798017e-08
-3.41047e-08
-2.9708656e-08
-2.5155906e-08
-2.072081e-08
-1.6598889e-08
-1.2910851e-08
-9.715324e-09
-7.0223652e-09
-4.8071626e-09
-3.0231397e-09
-1.6125802e-09
-5.1650293e-10
3.2258948e-10
9.6276565e-10
1.4568284e-09
1.8511118e-09
2.1872011e-09
2.5028868e-09
2.8334095e-09
3.2128388e-09
3.6753675e-09
4.2565619e-09
4.9948853e-09
5.9334243e-09
7.1209668e-09
8.6132669e-09
1.0474394e-08
1.277773e-08
1.5606387e-08
1.9052757e-08
2.3216735e-08
2.8202015e-08
3.4109742e-08
4.1028816e-08
4.9022352e-08
5.8110295e-08
6.8249208e-08
7.9311669e-08
9.1069673e-08
1.0318826e-07
1.152365e-07
1.2672181e-07
1.3714891e-07
1.4609679e-07
1.5329774e-07
1.5869736e-07
1.6247909e-07
1.650411e-07
1.6690446e-07
1.686132e-07
1.7107978e-07
1.7690845e-07
1.8955239e-07
-8.5834731e-08
-7.8792159e-08
-7.3197971e-08
-6.3106713e-08
-5.5660543e-08
-5.003725e-08
-4.4037089e-08
-3.7703659e-08
-3.1482773e-08
-2.5679239e-08
-2.0459745e-08
-1.5900444e-08
-1.2015637e-08
-8.7780911e-09
-6.1340192e-09
-4.0145818e-09
-2.3444449e-09
-1.0480827e-09
-5.369217e-11
7.0507801e-10
1.2875921e-09
1.7457594e-09
2.1240089e-09
2.4649446e-09
2.8080859e-09
3.1916424e-09
3.6540455e-09
4.2359269e-09
4.9817345e-09
5.9417826e-09
7.1745238e-09
8.7484339e-09
1.0744187e-08
1.3257064e-08
1.6399279e-08
2.0302053e-08
2.5117202e-08
3.1017866e-08
3.8197797e-08
4.6868415e-08
5.7252624e-08
6.9574108e-08
8.4040678e-08
1.0082019e-07
1.2000796e-07
1.4158567e-07
1.653738e-07
1.9098316e-07
2.1777575e-07
2.4484979e-07
2.7106616e-07
2.9512977e-07
3.157286e-07
3.3171701e-07
3.4230643e-07
3.4717282e-07
3.4636589e-07
3.4034866e-07
3.3140595e-07
3.2744694e-07
)
;
    }
}


// ************************************************************************* //
