/*--------------------------------*- C++ -*----------------------------------*\
| =========                 |                                                 |
| \\      /  F ield         | OpenFOAM: The Open Source CFD Toolbox           |
|  \\    /   O peration     | Version:  3.0.1                                 |
|   \\  /    A nd           | Web:      www.OpenFOAM.org                      |
|    \\/     M anipulation  |                                                 |
\*---------------------------------------------------------------------------*/
FoamFile
{
    version     2.0;
    format      ascii;
    class       surfaceScalarField;
    location    "25";
    object      phi;
}
// * * * * * * * * * * * * * * * * * * * * * * * * * * * * * * * * * * * * * //

dimensions      [0 3 -1 0 0 0 0];

internalField   nonuniform List<scalar> 
1072
(
0.15379904
-5.4430553e-08
-1.4111207e-10
0.15379909
-6.9941946e-08
1.9080292e-09
0.15379904
5.3569903e-08
-1.3893928e-10
6.4098016e-08
-7.2007083e-11
0.075693537
-2.3833436e-07
-6.8975538e-09
0.075693744
-2.5947378e-07
-3.794585e-10
0.075693534
2.586969e-07
-3.5956932e-10
2.6247262e-07
-1.7896777e-09
0.026819751
-2.6379717e-07
-7.2519583e-09
0.02681979
-2.9889509e-07
-1.4735709e-09
0.026819764
3.0456282e-07
2.9012465e-10
3.1759281e-07
-1.8300751e-09
0.025135935
-1.8516092e-07
-4.7610376e-09
0.02513586
-2.2826215e-07
-1.3282665e-09
0.025135941
2.3893086e-07
6.8869057e-10
2.6166725e-07
-1.6276619e-09
0.033966513
2.8118919e-08
-2.4719808e-09
0.033966302
-1.5942698e-08
-9.8127592e-10
0.033966511
3.2938363e-08
1.134163e-09
6.151278e-08
-1.1193686e-09
0.037917143
2.4453556e-07
-7.9734799e-10
0.037916917
2.1424312e-07
-5.5541259e-10
0.037917127
-1.7854332e-07
1.2539055e-09
-1.5828773e-07
-7.8178492e-10
0.035731115
3.5771316e-07
1.581311e-10
0.035730986
3.4896943e-07
-2.1163875e-10
0.035731093
-2.8725091e-07
1.2085613e-09
-2.8349416e-07
-5.7079573e-10
0.03017949
3.6120998e-07
6.0443364e-10
0.030179474
3.7050082e-07
-1.7840009e-11
0.030179472
-2.8594157e-07
1.09042e-09
-2.9603241e-07
-4.2291515e-10
0.023767226
2.9811163e-07
7.4964928e-10
0.023767285
3.1722692e-07
1.0307994e-10
0.023767217
-2.1753223e-07
9.455812e-10
-2.3432007e-07
-3.0636565e-10
0.017865203
2.1278359e-07
7.3642315e-10
0.01786529
2.3454283e-07
1.7806113e-10
0.0178652
-1.2651584e-07
7.9761247e-10
-1.4386483e-07
-2.1113686e-10
0.012984511
1.3297733e-07
6.543898e-10
0.012984596
1.5314043e-07
2.0730535e-10
0.012984512
-4.0869214e-08
6.5826925e-10
-5.5423865e-08
-1.3447229e-10
0.0091834298
7.0606512e-08
5.405769e-10
0.0091834995
8.7427395e-08
2.2704032e-10
0.0091834324
2.7276944e-08
5.3284757e-10
1.655207e-08
-7.5283396e-11
0.0063365671
2.7883386e-08
4.1724634e-10
0.006336617
4.1125469e-08
2.2879077e-10
0.0063365698
7.5522541e-08
4.2206573e-10
6.834658e-08
-3.2540191e-11
0.0042681131
2.584763e-09
3.11821e-10
0.0042681446
1.2734427e-08
1.9204736e-10
0.0042681153
1.0593519e-07
3.2535871e-10
1.0149163e-07
-4.5065423e-12
0.0028059611
-8.887086e-09
2.236139e-10
0.0028059776
-1.0813073e-09
1.3944758e-10
0.0028059626
1.2199092e-07
2.4898852e-10
1.1935958e-07
1.1314638e-11
0.0017999737
-1.010525e-08
1.5193085e-10
0.0017999787
-3.837069e-09
8.8850112e-11
0.0017999746
1.271913e-07
1.9138827e-10
1.2552261e-07
1.7717389e-11
0.0011264879
-4.1204985e-09
9.7038598e-11
0.0011264845
1.3779118e-09
4.6118464e-11
0.0011264881
1.2457322e-07
1.177445e-10
1.2311004e-07
1.7311301e-11
0.00068784827
6.6855747e-09
5.3406121e-11
0.00068783907
1.2110021e-08
1.6084715e-11
0.00068784794
1.1653539e-07
6.3949489e-11
1.1460579e-07
1.221756e-11
0.00040990042
2.059813e-08
2.0671098e-11
0.00040988712
2.6595343e-08
-5.0443513e-12
0.00040989955
1.047965e-07
2.8403518e-11
1.0181197e-07
4.3246867e-12
0.0002384843
3.653292e-08
-2.5199447e-12
0.00023846803
4.3733789e-08
-1.9880337e-11
0.00023848289
9.0472614e-08
3.6061698e-12
8.5874819e-08
-5.4889821e-12
0.0001355361
5.3975465e-08
-1.7928052e-11
0.00013551738
6.3036124e-08
-3.0571809e-11
0.0001355341
7.4123686e-08
-1.3761468e-11
6.7326801e-08
-1.3776944e-11
7.528575e-05
7.2913912e-08
-2.6944146e-11
7.5264558e-05
8.4561855e-08
-3.7865814e-11
7.5283086e-05
5.5814416e-08
-2.5866089e-11
4.6177942e-08
-3.3265485e-11
4.0900598e-05
9.3775542e-08
-3.0706892e-11
4.0876399e-05
1.0886889e-07
-4.2648063e-11
4.0897125e-05
3.5166054e-08
-3.4041368e-11
2.1899957e-08
-4.3213021e-11
2.1755704e-05
1.1738556e-07
-3.0051781e-11
2.1727501e-05
1.3697859e-07
-4.5557636e-11
2.1751219e-05
1.1401033e-08
-3.9359298e-11
-6.4895916e-09
-5.0388948e-11
1.1362668e-05
1.4495184e-07
-2.5531197e-11
1.1328996e-05
1.7037457e-07
-4.7049876e-11
1.1356888e-05
-1.6644675e-08
-4.2679234e-11
-4.0435423e-08
-5.6981055e-11
5.891131e-06
1.7808352e-07
-1.7427386e-11
5.8500186e-06
2.1103844e-07
-4.7466156e-11
5.8836758e-06
-5.0541517e-08
-4.4647543e-11
-8.1882285e-08
-6.4113918e-11
3.1736985e-06
2.1884493e-07
-5.7480076e-12
3.1225926e-06
2.615267e-07
-4.7068658e-11
3.164069e-06
-9.2320197e-08
-4.5832426e-11
-1.3335292e-07
-7.2521498e-11
2.0828763e-06
2.6984757e-07
9.8835629e-12
2.0185175e-06
3.2509363e-07
-4.6049427e-11
2.0704198e-06
-1.445628e-07
-4.6759771e-11
-1.9807149e-07
-8.2935349e-11
2.1933643e-06
3.3438805e-07
3.1379687e-11
2.1115998e-06
4.0587701e-07
-4.4525425e-11
2.1772306e-06
-2.1054542e-07
-4.7939592e-11
-2.8014649e-07
-9.6164372e-11
3.6857708e-06
4.1663203e-07
5.4925536e-11
3.5813186e-06
5.0913243e-07
-4.2527853e-11
3.664853e-06
-2.9441481e-07
-4.9877777e-11
-3.8480038e-07
-1.1314193e-10
7.5079838e-06
5.217853e-07
8.4367792e-11
7.3741799e-06
6.4148419e-07
-3.9995315e-11
7.4808408e-06
-4.013644e-07
-5.3082551e-11
-5.1862988e-07
-1.3496794e-10
1.5897511e-05
6.5632541e-07
1.2072876e-10
1.5725979e-05
8.1125307e-07
-3.6742336e-11
1.5862264e-05
-5.3786124e-07
-5.8071706e-11
-6.8993404e-07
-1.6290136e-10
3.3502629e-05
8.2823506e-07
1.6525289e-10
3.3282908e-05
1.0288268e-06
-3.242451e-11
3.3456822e-05
-7.1188227e-07
-6.5368838e-11
-9.0908477e-07
-1.9834766e-10
6.9555935e-05
1.0471971e-06
2.1933315e-10
6.9275102e-05
1.3070337e-06
-2.6140413e-11
6.9496351e-05
-9.3311088e-07
-7.5486147e-11
-1.1889043e-06
-2.4284064e-10
0.00014190004
1.3246886e-06
2.8442044e-10
0.00014154238
1.6614755e-06
-1.7870644e-11
0.00014182247
-1.2130328e-06
-8.8892555e-11
-1.545e-06
-2.9800198e-10
0.00028420662
1.673873e-06
3.6188459e-10
0.00028375343
2.1107241e-06
-6.5608953e-12
0.00028410553
-1.56483e-06
-1.0596764e-10
-1.9959672e-06
-3.6546796e-10
0.00055854239
2.1091437e-06
4.5282297e-10
0.00055797206
2.6762506e-06
9.2703654e-12
0.00055841058
-2.0029271e-06
-1.2692894e-10
-2.5633243e-06
-4.4677477e-10
0.0010765897
2.6451295e-06
5.5780555e-10
0.0010758783
3.3818913e-06
3.1087439e-11
0.0010764178
-2.5419963e-06
-1.5173741e-10
-3.2709822e-06
-5.4319285e-10
0.0020343553
3.2949384e-06
6.7655899e-10
0.0020334776
4.252599e-06
6.0596056e-11
0.0020341313
-3.1952008e-06
-1.7998224e-10
-4.1439976e-06
-6.5550159e-10
0.0037670308
4.06743e-06
8.076035e-10
0.003765963
5.3121884e-06
9.9676053e-11
0.0037667396
-3.9714637e-06
-2.1075243e-10
-5.2063174e-06
-7.836999e-10
0.0068325507
4.9633915e-06
9.4787187e-10
0.0068312735
6.5797949e-06
1.5025949e-10
0.0068321736
-4.8716375e-06
-2.4251123e-10
-6.4772304e-06
-9.2665557e-10
0.012133783
5.9706971e-06
1.0923602e-09
0.012132287
8.0648484e-06
2.141349e-10
0.012133298
-5.8836526e-06
-2.7299874e-10
-7.9663273e-06
-1.0817088e-09
0.021089266
7.0588846e-06
1.2338812e-09
0.021087558
9.7605757e-06
2.9266216e-10
0.02108865
-6.9770824e-06
-2.9919852e-10
-9.6669824e-06
-1.2442617e-09
0.035859667
8.1740925e-06
1.3630031e-09
0.035857779
1.16364e-05
3.8639213e-10
0.035858897
-8.0980654e-06
-3.1740971e-10
-1.1548726e-05
-1.4074101e-09
0.05963007
9.2358938e-06
1.4682737e-09
0.059628063
1.363012e-05
4.9460332e-10
0.059629127
-9.1661274e-06
-3.2346779e-10
-1.3549393e-05
-1.5616965e-09
0.096935441
1.013809e-05
1.5368108e-09
0.096933417
1.564138e-05
6.1479517e-10
0.096934321
-1.0074969e-05
-3.1315e-10
-1.5568568e-05
-1.6950959e-09
0.15399746
1.0755715e-05
1.5553083e-09
0.15399556
1.7528607e-05
7.4221582e-10
0.15399618
-1.069947e-05
-2.8277572e-10
-1.7464506e-05
-1.7933496e-09
0.23901655
1.0959988e-05
1.5114453e-09
0.23901495
1.9112086e-05
8.6954452e-10
0.23901515
-1.0910662e-05
-2.2997378e-10
-1.9057208e-05
-1.8407823e-09
0.36233711
1.0641474e-05
1.3955939e-09
0.36233603
2.0185987e-05
9.8688175e-10
0.3623357
-1.0598919e-05
-1.545336e-10
-2.014048e-05
-1.8216845e-09
0.53638395
9.739072e-06
1.2026222e-09
0.53638359
2.054157e-05
1.0822075e-09
0.53638268
-9.7029833e-06
-5.9193298e-11
-2.050519e-05
-1.7222714e-09
0.77526272
8.2691295e-06
9.3349559e-10
0.77526326
2.0002192e-05
1.1424339e-09
0.77526178
-8.2391328e-06
4.9844174e-11
-1.9974345e-05
-1.5330933e-09
1.093938
6.3458273e-06
5.9634085e-10
1.0939395
1.8467769e-05
1.1550964e-09
1.0939376
-6.3215907e-06
1.6287091e-10
-1.8447624e-05
-1.2516136e-09
1.5069556
4.1826195e-06
2.0667704e-10
1.5069581
1.5962016e-05
1.1106023e-09
1.5069559
-4.163958e-06
2.6743137e-10
-1.5948658e-05
-8.8450198e-10
2.026763
2.0665838e-06
-2.1331124e-10
2.0267663
1.2670715e-05
1.0047564e-09
2.0267642
-2.0534878e-06
3.4987261e-10
-1.266326e-05
-4.4905376e-10
2.6617869
3.0399345e-07
-6.3635449e-10
2.6617907
8.9546965e-06
8.4115721e-10
2.6617889
-2.96493e-07
3.9776646e-10
-8.9523057e-06
2.6673641e-11
3.4145354
-8.5455997e-07
-1.0321084e-09
3.4145391
5.319617e-06
6.3412152e-10
3.4145379
8.5677757e-07
4.0318069e-10
-5.3213011e-06
5.0363617e-10
4.2800633
-1.2906648e-06
-1.3658344e-09
4.2800663
2.3280154e-06
4.1551122e-10
4.2800658
1.288913e-06
3.6612417e-10
-2.3321953e-06
9.268198e-10
5.2451471
-1.0709931e-06
-1.603187e-09
5.245149
4.4922883e-07
2.4553918e-10
5.2451492
1.0684741e-06
2.9843931e-10
-4.5310734e-07
1.2147753e-09
6.2884438
-4.6702608e-07
-1.7260485e-09
6.2884445
-1.7306281e-07
1.7898551e-10
6.2884451
4.6938337e-07
2.2841644e-10
1.7365085e-07
1.3074728e-09
7.3817485
-1.5439517e-09
7.3817483
2.5481844e-10
7.3817488
1.9621442e-10
1.0024249e-09
0.15379906
-4.9795093e-08
0.15379912
-7.4877892e-08
0.15379907
5.7356872e-08
6.7309203e-08
0.075693574
-2.3747009e-07
0.075693786
-2.6330149e-07
0.075693579
2.5477335e-07
2.5736697e-07
0.026819841
-2.5997472e-07
0.026819871
-2.9295041e-07
0.026819861
2.8463556e-07
2.9574413e-07
0.025135988
-1.8341377e-07
0.025135912
-2.2119029e-07
0.025135998
2.1393119e-07
2.3334967e-07
0.033966547
3.1656148e-08
0.033966333
-6.8684164e-09
0.033966548
5.1343102e-09
2.8917405e-08
0.037917137
2.4616365e-07
0.037916913
2.2146402e-07
0.037917123
-2.0201898e-07
-1.8830369e-07
0.035731084
3.5595713e-07
0.035730959
3.5194157e-07
0.035731064
-3.0334642e-07
-3.0673731e-07
0.030179458
3.5725063e-07
0.030179446
3.6972238e-07
0.030179441
-2.9542719e-07
-3.121564e-07
0.023767205
2.9375749e-07
0.023767266
3.1445473e-07
0.023767197
-2.2242113e-07
-2.4480501e-07
0.017865193
2.0931889e-07
0.017865281
2.3139684e-07
0.017865191
-1.2856634e-07
-1.5039598e-07
0.012984509
1.3097601e-07
0.012984594
1.505974e-07
0.012984511
-4.1214754e-08
-5.927537e-08
0.0091834317
7.0119458e-08
0.009183501
8.5929989e-08
0.009183435
2.8003424e-08
1.4551791e-08
0.0063365706
2.8689283e-08
0.0063366199
4.0759558e-08
0.0063365739
7.6973921e-08
6.7672657e-08
0.0042681168
4.3808446e-09
0.0042681477
1.3375792e-08
0.0042681194
1.0789745e-07
1.0179056e-07
0.0028059646
-6.3777469e-09
0.0028059805
3.6376049e-10
0.0028059664
1.2431825e-07
1.203714e-07
0.0017999767
-7.1138505e-09
0.0017999812
-1.8175339e-09
0.0017999777
1.297762e-07
1.2704156e-07
0.0011264903
-8.3953699e-10
0.0011264865
3.764268e-09
0.0011264906
1.2728506e-07
1.2496532e-07
0.00068785017
1.0101405e-08
0.0006878406
1.4704863e-08
0.00068784988
1.1926158e-07
1.1665756e-07
0.00040990185
2.4049651e-08
0.00040988825
2.9286465e-08
0.000409901
1.0745884e-07
1.0394586e-07
0.00023848535
3.9942915e-08
0.00023846884
4.6435808e-08
0.00023848394
9.302628e-08
8.7995313e-08
0.00013553683
5.7296471e-08
0.00013551792
6.5700793e-08
0.00013553484
7.6528187e-08
6.9361597e-08
7.5286249e-05
7.6123009e-08
7.5264902e-05
8.7155171e-08
7.5283585e-05
5.8033171e-08
4.8031362e-08
4.0900916e-05
9.6872754e-08
4.0876596e-05
1.1137589e-07
4.0897449e-05
3.7167728e-08
2.3518658e-08
2.1755889e-05
1.2039088e-07
2.1727588e-05
1.3940209e-07
2.1751414e-05
1.3156807e-08
-5.1507924e-09
1.1362754e-05
1.4790323e-07
1.1328997e-05
1.7273442e-07
1.1356988e-05
-1.5163554e-08
-3.9422015e-08
5.8911375e-06
1.8103608e-07
5.8499477e-06
2.1337163e-07
5.883703e-06
-4.9365768e-08
-8.1245456e-08
3.1736364e-06
2.2187091e-07
3.1224526e-06
2.6388872e-07
3.1640338e-06
-9.1485213e-08
-1.3315333e-07
2.0827459e-06
2.7303753e-07
2.0182997e-06
3.2756106e-07
2.0703225e-06
-1.4411179e-07
-1.9838322e-07
2.1931548e-06
3.3785999e-07
2.1112833e-06
4.0855111e-07
2.1770603e-06
-2.1053267e-07
-2.8106287e-07
3.6854565e-06
4.2051962e-07
3.5808659e-06
5.1214336e-07
3.6645834e-06
-2.9490907e-07
-3.8644188e-07
7.5075173e-06
5.2625031e-07
7.3735279e-06
6.4499813e-07
7.4804226e-06
-4.0245331e-07
-5.2115035e-07
1.589681e-05
6.6155986e-07
1.5725025e-05
8.1548064e-07
1.586161e-05
-5.3965578e-07
-6.9352769e-07
3.3501551e-05
8.3446295e-07
3.3281486e-05
1.0340324e-06
3.3455783e-05
-7.1452065e-07
-9.1399436e-07
6.9554239e-05
1.0546743e-06
6.9272943e-05
1.3135465e-06
6.9494677e-05
-9.3676107e-07
-1.1954292e-06
0.00014189733
1.333699e-06
0.00014153906
1.6696966e-06
0.00014181974
-1.2178924e-06
-1.5535026e-06
0.00028420225
1.6847182e-06
0.00028374827
2.1211315e-06
0.00028410108
-1.5711214e-06
-2.0068756e-06
0.00055853535
2.1221239e-06
0.00055796402
2.6893998e-06
0.00055840335
-2.0108842e-06
-2.5771272e-06
0.0010765785
2.6605108e-06
0.0010758658
3.3984029e-06
0.0010764062
-2.5518404e-06
-3.2882119e-06
0.0020343375
3.3129035e-06
0.0020334584
4.2731285e-06
0.0020341129
-3.2071012e-06
-4.1651952e-06
0.0037670031
4.0880095e-06
0.0037659338
5.3373718e-06
0.003766711
-3.9854795e-06
-5.2319735e-06
0.0068325086
4.9863765e-06
0.00683123
6.6101627e-06
0.0068321303
-4.8876408e-06
-6.5076955e-06
0.01213372
5.9955376e-06
0.012132223
8.1007043e-06
0.012133234
-5.9012376e-06
-8.0016899e-06
0.021089176
7.0845892e-06
0.021087468
9.8018401e-06
0.021088558
-6.9954717e-06
-9.7069156e-06
0.035859541
8.1991513e-06
0.035857654
1.1682428e-05
0.035858768
-8.1160357e-06
-1.1592316e-05
0.059629899
9.2582594e-06
0.059627895
1.3679514e-05
0.059628953
-9.181987e-06
-1.359497e-05
0.096935218
1.0155257e-05
0.0969332
1.5691834e-05
0.096934094
-1.0086624e-05
-1.5613579e-05
0.15399718
1.0764935e-05
0.15399529
1.7576832e-05
0.1539959
-1.0704618e-05
-1.7505474e-05
0.23901621
1.0958637e-05
0.23901463
1.9153874e-05
0.23901482
-1.090713e-05
-1.9089846e-05
0.36233672
1.0627557e-05
0.36233566
2.0216482e-05
0.36233532
-1.0585122e-05
-2.0160001e-05
0.53638353
9.7117863e-06
0.53638319
2.0555799e-05
0.53638226
-9.6784477e-06
-2.0506881e-05
0.77526229
8.2293546e-06
0.77526285
1.9995878e-05
0.77526136
-8.2049341e-06
-1.9954393e-05
1.0939376
6.2963679e-06
1.0939391
1.8438381e-05
1.0939372
-6.2805491e-06
-1.8404155e-05
1.5069553
4.1280333e-06
1.5069578
1.5909923e-05
1.5069556
-4.1204201e-06
-1.5882828e-05
2.0267628
2.0125089e-06
2.0267661
1.2600167e-05
2.026764
-2.012608e-06
-1.2580144e-05
2.6617868
2.5604395e-07
2.6617906
8.8742378e-06
2.6617888
-2.6307697e-07
-8.8611771e-06
3.4145355
-8.9206238e-07
3.4145391
5.241397e-06
3.414538
8.7962172e-07
-5.2348356e-06
4.2800634
-1.315672e-06
4.2800664
2.2653548e-06
4.280066
1.3009261e-06
-2.2640631e-06
5.2451474
-1.0839539e-06
5.2451492
4.1154313e-07
5.2451494
1.072796e-06
-4.1321476e-07
6.288444
-4.7013615e-07
6.2884446
-1.8384931e-07
6.2884453
4.7167549e-07
1.8258373e-07
7.3817486
7.3817484
7.3817489
)
;

boundaryField
{
    movingWall
    {
        type            calculated;
        value           uniform 0;
    }
    CPLReceiveMD
    {
        type            calculated;
        value           uniform 0;
    }
    streamwiseIn
    {
        type            cyclic;
        value           nonuniform List<scalar> 
120
(
-0.15379897
-0.075693322
-0.026819722
-0.025136012
-0.03396672
-0.037917351
-0.035731222
-0.030179488
-0.023767159
-0.017865114
-0.012984427
-0.009183364
-0.0063365212
-0.0042680849
-0.0028059471
-0.0017999704
-0.0011264922
-0.00068785779
-0.00040991338
-0.00023849958
-0.00013555314
-7.5304516e-05
-4.092148e-05
-2.1779501e-05
-1.1390564e-05
-5.9247147e-06
-3.2150165e-06
-2.1345244e-06
-2.2586271e-06
-3.7687928e-06
-7.6139537e-06
-1.6032886e-05
-3.3675367e-05
-6.9775687e-05
-0.00014217825
-0.00028455639
-0.00055897807
-0.0010771259
-0.0020350049
-0.0037678027
-0.0068334455
-0.012134788
-0.021090352
-0.035860779
-0.059631128
-0.096936339
-0.15399807
-0.23901675
-0.36233679
-0.53638305
-0.77526125
-1.093936
-1.5069534
-2.0267609
-2.6617852
-3.4145343
-4.2800628
-5.2451473
-6.2884444
-7.381749
-0.15379901
-0.075693366
-0.026819829
-0.02513607
-0.033966758
-0.037917343
-0.035731185
-0.03017945
-0.023767133
-0.017865101
-0.012984423
-0.0091833647
-0.0063365238
-0.0042680879
-0.00280595
-0.0017999728
-0.0011264941
-0.00068785925
-0.00040991445
-0.00023850033
-0.00013555366
-7.5304872e-05
-4.0921741e-05
-2.1779723e-05
-1.1390791e-05
-5.924983e-06
-3.2153575e-06
-2.1349659e-06
-2.2591949e-06
-3.7695108e-06
-7.6148347e-06
-1.603392e-05
-3.3676497e-05
-6.9776771e-05
-0.000142179
-0.00028455627
-0.00055897616
-0.0010771207
-0.0020349942
-0.003767783
-0.0068334121
-0.012134735
-0.021090271
-0.035860661
-0.059630964
-0.096936121
-0.1539978
-0.23901641
-0.36233639
-0.53638262
-0.77526081
-1.0939356
-1.5069531
-2.0267607
-2.6617851
-3.4145344
-4.280063
-5.2451476
-6.2884447
-7.3817491
)
;
    }
    streamwiseOut
    {
        type            cyclic;
        value           nonuniform List<scalar> 
120
(
0.15379897
0.075693322
0.026819722
0.025136012
0.03396672
0.037917351
0.035731222
0.030179488
0.023767159
0.017865114
0.012984427
0.009183364
0.0063365212
0.0042680849
0.0028059471
0.0017999704
0.0011264922
0.00068785779
0.00040991338
0.00023849958
0.00013555314
7.5304516e-05
4.092148e-05
2.1779501e-05
1.1390564e-05
5.9247147e-06
3.2150165e-06
2.1345244e-06
2.2586271e-06
3.7687928e-06
7.6139537e-06
1.6032886e-05
3.3675367e-05
6.9775687e-05
0.00014217825
0.00028455639
0.00055897807
0.0010771259
0.0020350049
0.0037678027
0.0068334455
0.012134788
0.021090352
0.035860779
0.059631128
0.096936339
0.15399807
0.23901675
0.36233679
0.53638305
0.77526125
1.093936
1.5069534
2.0267609
2.6617852
3.4145343
4.2800628
5.2451473
6.2884444
7.381749
0.15379901
0.075693366
0.026819829
0.02513607
0.033966758
0.037917343
0.035731185
0.03017945
0.023767133
0.017865101
0.012984423
0.0091833647
0.0063365238
0.0042680879
0.00280595
0.0017999728
0.0011264941
0.00068785925
0.00040991445
0.00023850033
0.00013555366
7.5304872e-05
4.0921741e-05
2.1779723e-05
1.1390791e-05
5.924983e-06
3.2153575e-06
2.1349659e-06
2.2591949e-06
3.7695108e-06
7.6148347e-06
1.603392e-05
3.3676497e-05
6.9776771e-05
0.000142179
0.00028455627
0.00055897616
0.0010771207
0.0020349942
0.003767783
0.0068334121
0.012134735
0.021090271
0.035860661
0.059630964
0.096936121
0.1539978
0.23901641
0.36233639
0.53638262
0.77526081
1.0939356
1.5069531
2.0267607
2.6617851
3.4145344
4.280063
5.2451476
6.2884447
7.3817491
)
;
    }
    front
    {
        type            cyclic;
        value           nonuniform 0();
    }
    back
    {
        type            cyclic;
        value           nonuniform 0();
    }
    procBoundary1to0
    {
        type            processor;
        value           nonuniform List<scalar> 
240
(
-6.7905798e-10
1.8846491e-09
-8.8861798e-10
3.7486178e-11
-7.3047437e-09
-5.2775849e-10
-1.1856323e-09
-1.7061604e-09
-7.7536701e-09
-1.5996029e-09
-5.2895969e-10
-1.7858338e-09
-5.3529631e-09
-1.4734818e-09
-8.6347921e-11
-1.6405096e-09
-3.0833258e-09
-1.1592219e-09
4.3501477e-10
-1.1743584e-09
-1.3968324e-09
-7.6681601e-10
6.5039097e-10
-8.5702009e-10
-3.8691736e-10
-4.2260436e-10
7.072477e-10
-6.4862213e-10
1.4600693e-10
-1.5254423e-10
6.8749914e-10
-4.9232499e-10
3.9771601e-10
1.7452991e-11
6.3096979e-10
-3.6226637e-10
4.9143447e-10
1.1650861e-10
5.5825725e-10
-2.5243292e-10
4.9128469e-10
1.6435953e-10
4.8054553e-10
-1.6232662e-10
4.3288149e-10
1.7622944e-10
4.0388576e-10
-9.1905809e-11
3.5083051e-10
1.641328e-10
3.3083756e-10
-4.041782e-11
2.6189083e-10
1.5481761e-10
2.629313e-10
-5.9852296e-12
1.8861131e-10
1.4097651e-10
2.0134591e-10
1.4197687e-11
1.2969131e-10
9.972954e-11
1.4752955e-10
2.3260577e-11
8.3475394e-11
5.7267123e-11
1.1132818e-10
2.4177241e-11
4.6731553e-11
2.5345306e-11
6.050234e-11
1.9519869e-11
1.8654809e-11
3.4628948e-12
2.7840796e-11
1.1434214e-11
-1.9419143e-12
-1.2083934e-11
5.3300209e-12
1.2010172e-12
-1.5938235e-11
-2.3525041e-11
-1.0961068e-11
-6.5239256e-12
-2.4322365e-11
-3.1752414e-11
-2.2672962e-11
-2.7073032e-11
-2.7944737e-11
-3.747015e-11
-3.0873663e-11
-3.7794585e-11
-2.742797e-11
-4.1262385e-11
-3.6447062e-11
-4.5780234e-11
-2.318628e-11
-4.3550057e-11
-4.0125181e-11
-5.3173504e-11
-1.5418675e-11
-4.465569e-11
-4.2478307e-11
-6.1038943e-11
-4.0903325e-12
-4.483805e-11
-4.403136e-11
-7.0079205e-11
1.1166422e-11
-4.4295654e-11
-4.5289215e-11
-8.1019199e-11
3.2161874e-11
-4.3157184e-11
-4.6754447e-11
-9.4674949e-11
5.5572309e-11
-4.1467376e-11
-4.8932697e-11
-1.1199255e-10
8.48932e-11
-3.9178152e-11
-5.2335534e-11
-1.3408596e-10
1.2115006e-10
-3.6116564e-11
-5.748569e-11
-1.622276e-10
1.6558712e-10
-3.1950728e-11
-6.4912143e-11
-1.9783483e-10
2.195959e-10
-2.5822843e-11
-7.5132299e-11
-2.4245149e-10
2.8462533e-10
-1.7646771e-11
-8.8619832e-11
-2.9770747e-10
3.6204326e-10
-6.3909997e-12
-1.057584e-10
-3.6524561e-10
4.5294509e-10
9.3989109e-12
-1.2676904e-10
-4.4660726e-10
5.5789903e-10
3.118441e-11
-1.5161566e-10
-5.4306692e-10
6.7663021e-10
6.0669002e-11
-1.7988983e-10
-6.5540711e-10
8.0765752e-10
9.9730783e-11
-2.1068251e-10
-7.8362915e-10
9.4791269e-10
1.5030046e-10
-2.4245846e-10
-9.2660269e-10
1.0923909e-09
2.141655e-10
-2.7295903e-10
-1.0816693e-09
1.2339042e-09
2.9268495e-10
-2.9916871e-10
-1.2442323e-09
1.3630203e-09
3.8640909e-10
-3.1738738e-10
-1.4073882e-09
1.4682866e-09
4.9461591e-10
-3.2345109e-10
-1.5616803e-09
1.5368204e-09
6.1480451e-10
-3.1313755e-10
-1.6950839e-09
1.5553155e-09
7.4222273e-10
-2.8276644e-10
-1.7933407e-09
1.5114505e-09
8.6954963e-10
-2.2996684e-10
-1.8407757e-09
1.3955977e-09
9.8688554e-10
-1.5452836e-10
-1.8216797e-09
1.202625e-09
1.0822104e-09
-5.918931e-11
-1.7222679e-09
9.3349759e-10
1.142436e-09
4.984639e-11
-1.5330907e-09
5.9634225e-10
1.1550979e-09
1.6287264e-10
-1.2516117e-09
2.0667793e-10
1.1106034e-09
2.6743276e-10
-8.8450045e-10
-2.1331069e-10
1.0047571e-09
3.4987378e-10
-4.490524e-10
-6.3635456e-10
8.4115777e-10
3.9776755e-10
2.6674737e-11
-1.0321088e-09
6.3412207e-10
4.0318168e-10
5.0363675e-10
-1.3658351e-09
4.1551174e-10
3.6612529e-10
9.2682024e-10
-1.6031881e-09
2.4553986e-10
2.9844077e-10
1.2147756e-09
-1.7260493e-09
1.7898619e-10
2.2841767e-10
1.307473e-09
-1.5439518e-09
2.54819e-10
1.9621481e-10
1.002425e-09
)
;
    }
    procBoundary1to0throughback
    {
        type            processorCyclic;
        value           nonuniform List<scalar> 
240
(
-1.5936052e-10
-7.4205638e-09
-9.5890078e-09
-9.393978e-09
-7.836839e-09
-6.0464069e-09
-4.6758107e-09
-3.6535404e-09
-2.8681911e-09
-2.2475256e-09
-1.7492973e-09
-1.3471496e-09
-1.0219368e-09
-7.5479287e-10
-5.5650277e-10
-4.1051627e-10
-2.8683856e-10
-1.9433984e-10
-1.4117812e-10
-9.2104643e-11
-5.6162698e-11
-3.0871197e-11
-1.4242184e-11
-4.7638479e-12
-1.3356182e-12
-3.2160382e-12
-9.993558e-12
-2.1547665e-11
-4.0011019e-11
-6.1945883e-11
-8.978832e-11
-1.248726e-10
-1.6840956e-10
-2.2173341e-10
-2.8624238e-10
-3.6326573e-10
-4.5386875e-10
-5.5859655e-10
-6.7715668e-10
-8.0805466e-10
-9.482121e-10
-1.0926165e-09
-1.2340741e-09
-1.3631482e-09
-1.4683828e-09
-1.5368927e-09
-1.5553698e-09
-1.5114914e-09
-1.3956285e-09
-1.2026481e-09
-9.3351501e-10
-5.963554e-10
-2.0668801e-10
2.1330293e-10
6.3634832e-10
1.0321039e-09
1.365831e-09
1.6031842e-09
1.7260458e-09
1.5439503e-09
1.3591531e-09
2.4079246e-11
-1.0383866e-10
-3.7904441e-11
-6.9743711e-11
-4.9667529e-10
-7.3082978e-10
-8.5689101e-10
-9.0105279e-10
-8.8104198e-10
-8.1533456e-10
-7.2107763e-10
-6.1323856e-10
-5.04829e-10
-4.029949e-10
-3.1238034e-10
-2.3520402e-10
-1.7007486e-10
-1.2150896e-10
-7.7597739e-11
-5.4923568e-11
-3.0429262e-11
-1.1207749e-11
3.5288391e-12
1.4517938e-11
2.244476e-11
2.7918629e-11
3.1450028e-11
3.3431302e-11
3.4120723e-11
3.3639023e-11
3.1948248e-11
2.8830031e-11
2.3766383e-11
1.5849294e-11
5.033593e-12
-1.0417278e-11
-3.1947256e-11
-6.1240171e-11
-1.0015839e-10
-1.5062058e-10
-2.1440515e-10
-2.9286436e-10
-3.8654339e-10
-4.9471642e-10
-6.1487972e-10
-7.4227898e-10
-8.6959168e-10
-9.8691693e-10
-1.0822338e-09
-1.1424534e-09
-1.1551109e-09
-1.1106129e-09
-1.0047641e-09
-8.4116262e-10
-6.3412544e-10
-4.1551383e-10
-2.4554124e-10
-1.7898743e-10
-2.5481966e-10
5.0898265e-10
-1.868407e-09
-3.1382413e-09
-3.0880052e-09
-2.8767136e-09
-2.4530403e-09
-2.033967e-09
-1.6768654e-09
-1.381452e-09
-1.1360298e-09
-9.3044817e-10
-7.5719398e-10
-6.1011762e-10
-4.8444796e-10
-3.7639303e-10
-2.8395181e-10
-2.0775891e-10
-1.5016038e-10
-9.7252486e-11
-6.8831671e-11
-4.1937013e-11
-2.0648174e-11
-4.0318714e-12
8.6866326e-12
1.8225528e-11
2.5308522e-11
3.0643233e-11
3.4898439e-11
3.8720944e-11
4.2741983e-11
4.7578814e-11
5.3840436e-11
6.2125251e-11
7.3006299e-11
8.7001922e-11
1.0452958e-10
1.2583727e-10
1.5091014e-10
1.7935631e-10
2.1027951e-10
2.4215437e-10
2.7272979e-10
2.9899605e-10
3.1725744e-10
3.2335337e-10
3.1306412e-10
2.8271129e-10
2.2992547e-10
1.5449737e-10
5.9166124e-11
-4.9863755e-11
-1.6288563e-10
-2.6744238e-10
-3.4988093e-10
-3.9777283e-10
-4.031858e-10
-3.6612852e-10
-2.9844294e-10
-2.2841969e-10
-1.9621676e-10
3.3032456e-09
1.060804e-09
-5.8186859e-10
-7.9476686e-10
-7.6701958e-10
-6.441511e-10
-5.5982373e-10
-5.2357724e-10
-5.0930604e-10
-4.9541333e-10
-4.7269548e-10
-4.3988458e-10
-3.9901357e-10
-3.5302137e-10
-3.0463765e-10
-2.5617502e-10
-2.0949457e-10
-1.6566387e-10
-1.2507061e-10
-8.7754735e-11
-5.406746e-11
-2.2756351e-11
-4.8099788e-12
1.113398e-11
2.5777896e-11
3.9718533e-11
5.3654305e-11
6.8453009e-11
8.5109435e-11
1.0473929e-10
1.2860153e-10
1.5808893e-10
1.9471604e-10
2.4010358e-10
2.9594119e-10
3.6391764e-10
4.456093e-10
5.4231723e-10
6.548441e-10
7.8320646e-10
9.2628544e-10
1.0814312e-09
1.2440538e-09
1.4072543e-09
1.5615799e-09
1.6950086e-09
1.7932843e-09
1.8407334e-09
1.8216479e-09
1.722244e-09
1.5330727e-09
1.2515982e-09
8.844901e-10
4.4904448e-10
-2.668112e-11
-5.0364203e-10
-9.2682489e-10
-1.2147799e-09
-1.3074767e-09
-1.0024274e-09
)
;
    }
}


// ************************************************************************* //
