/*--------------------------------*- C++ -*----------------------------------*\
| =========                 |                                                 |
| \\      /  F ield         | OpenFOAM: The Open Source CFD Toolbox           |
|  \\    /   O peration     | Version:  3.0.1                                 |
|   \\  /    A nd           | Web:      www.OpenFOAM.org                      |
|    \\/     M anipulation  |                                                 |
\*---------------------------------------------------------------------------*/
FoamFile
{
    version     2.0;
    format      ascii;
    class       volVectorField;
    location    "25";
    object      U;
}
// * * * * * * * * * * * * * * * * * * * * * * * * * * * * * * * * * * * * * //

dimensions      [0 1 -1 0 0 0 0];

internalField   nonuniform List<vector> 
480
(
(0.0096887267 -5.1513683e-10 8.3111767e-12)
(0.0096887374 -5.1877639e-10 -2.7976594e-12)
(0.0096887365 4.8651342e-10 1.2399153e-11)
(0.0096887277 4.8251076e-10 -4.9962394e-12)
(0.0047683778 -2.5017564e-09 4.6737059e-12)
(0.00476841 -2.6376414e-09 -8.0503308e-12)
(0.0047684087 2.6178729e-09 9.160299e-12)
(0.004768379 2.6296506e-09 -9.0595877e-12)
(0.0016895324 -4.5373668e-09 4.580918e-12)
(0.0016895442 -4.9833236e-09 -8.8772017e-12)
(0.0016895422 5.0322568e-09 7.796044e-12)
(0.0016895365 5.1645398e-09 -9.3035134e-12)
(0.0015834663 -3.985432e-09 5.6076006e-12)
(0.0015834627 -4.6619991e-09 -7.9182839e-12)
(0.0015834616 4.7594678e-09 7.0915878e-12)
(0.0015834686 5.1205493e-09 -8.0081037e-12)
(0.0021397669 -1.4328251e-09 5.9051964e-12)
(0.0021397453 -2.1760976e-09 -6.5109635e-12)
(0.0021397443 2.3622733e-09 6.2991301e-12)
(0.0021397681 2.8402134e-09 -6.606917e-12)
(0.0023886426 2.4419736e-09 5.4242832e-12)
(0.0023886178 1.8152944e-09 -5.543714e-12)
(0.0023886174 -1.4225893e-09 5.215689e-12)
(0.0023886415 -9.9862558e-10 -5.5276149e-12)
(0.002250926 5.2546179e-09 4.4960248e-12)
(0.0022509123 4.9468325e-09 -4.8651859e-12)
(0.0022509123 -4.1673395e-09 3.9924626e-12)
(0.0022509235 -3.9772352e-09 -4.7537566e-12)
(0.0019011888 6.0670043e-09 3.4468592e-12)
(0.0019011886 6.1023257e-09 -4.2674021e-12)
(0.0019011888 -4.9096651e-09 2.810334e-12)
(0.0019011865 -4.9862573e-09 -4.1749081e-12)
(0.001497237 5.3943062e-09 2.4867787e-12)
(0.0014972458 5.6530931e-09 -3.7428185e-12)
(0.0014972461 -4.1580859e-09 1.7840822e-12)
(0.0014972357 -4.4001106e-09 -3.6948453e-12)
(0.0011254312 4.0683922e-09 1.6919033e-12)
(0.0011254433 4.4144974e-09 -3.2926772e-12)
(0.0011254436 -2.7448861e-09 9.6431307e-13)
(0.0011254307 -3.0339983e-09 -3.262172e-12)
(0.00081796706 2.6840263e-09 1.0621895e-12)
(0.00081797875 3.026302e-09 -2.8995512e-12)
(0.00081797898 -1.2684273e-09 3.4967004e-13)
(0.00081796711 -1.5288089e-09 -2.8583062e-12)
(0.00057851506 1.5333677e-09 5.7853502e-13)
(0.00057852457 1.8286587e-09 -2.5601604e-12)
(0.00057852473 -2.4904452e-11 -8.1092554e-14)
(0.00057851535 -2.2587052e-10 -2.4799491e-12)
(0.00039917526 7.0312396e-10 2.1637245e-13)
(0.00039918215 9.3974079e-10 -2.2383646e-12)
(0.00039918226 8.9555049e-10 -3.5789246e-13)
(0.00039917561 7.5620726e-10 -2.1300606e-12)
(0.00026887203 1.768475e-10 -5.3889981e-14)
(0.00026887651 3.5919044e-10 -1.8908216e-12)
(0.00026887657 1.5066117e-09 -5.1730381e-13)
(0.00026887234 1.4179924e-09 -1.81282e-12)
(0.00017676321 -9.9702033e-11 -2.5011833e-13)
(0.00017676573 3.9282759e-11 -1.5499415e-12)
(0.00017676575 1.8603362e-09 -5.9102664e-13)
(0.00017676346 1.8076898e-09 -1.52995e-12)
(0.00011339072 -1.8674024e-10 -3.6726542e-13)
(0.00011339174 -7.8282237e-11 -1.2631682e-12)
(0.00011339174 2.0153539e-09 -6.0082634e-13)
(0.00011339091 1.9842916e-09 -1.2795537e-12)
(7.0964323e-05 -1.3781247e-10 -3.8085415e-13)
(7.0964249e-05 -4.734627e-11 -1.0300547e-12)
(7.0964215e-05 2.0246212e-09 -5.5348006e-13)
(7.0964447e-05 2.0023697e-09 -1.0590523e-12)
(4.3332145e-05 3.8192667e-12 -3.8102098e-13)
(4.3331302e-05 8.7823234e-11 -8.4137028e-13)
(4.3331245e-05 1.9314923e-09 -5.0110002e-13)
(4.333221e-05 1.9068697e-09 -8.7006899e-13)
(2.5822793e-05 2.0572972e-10 -3.6093776e-13)
(2.5821419e-05 2.9389101e-10 -6.8698576e-13)
(2.5821341e-05 1.7685781e-09 -4.3811139e-13)
(2.5822805e-05 1.7317519e-09 -7.0862883e-13)
(1.502444e-05 4.4599644e-10 -3.189587e-13)
(1.5022694e-05 5.4828638e-10 -5.5201792e-13)
(1.5022591e-05 1.558216e-09 -3.7664069e-13)
(1.5024403e-05 1.5001948e-09 -5.7255893e-13)
(8.539254e-06 7.1216488e-10 -2.7387597e-13)
(8.5372169e-06 8.3863322e-10 -4.4021654e-13)
(8.537086e-06 1.3134437e-09 -3.1205162e-13)
(8.5391685e-06 1.2252671e-09 -4.5801461e-13)
(4.7438568e-06 1.0003337e-09 -2.3063018e-13)
(4.7415435e-06 1.1617751e-09 -3.4588845e-13)
(4.7413778e-06 1.0388253e-09 -2.5481773e-13)
(4.7437215e-06 9.1102958e-10 -3.642872e-13)
(2.5778866e-06 1.3140337e-09 -1.9104333e-13)
(2.5752523e-06 1.5228016e-09 -2.6996207e-13)
(2.5750421e-06 7.31659e-10 -2.0595879e-13)
(2.5776961e-06 5.5319354e-10 -2.8571812e-13)
(1.3720416e-06 1.6633283e-09 -1.5623713e-13)
(1.3689869e-06 1.9343324e-09 -2.0968231e-13)
(1.3687191e-06 3.8276752e-10 -1.649753e-13)
(1.3717862e-06 1.3967713e-10 -2.2214017e-13)
(7.1760462e-07 2.064354e-09 -1.2648266e-13)
(7.1397696e-07 2.4162068e-09 -1.6214889e-13)
(7.1363416e-07 -2.3302936e-11 -1.3117861e-13)
(7.1726924e-07 -3.4877167e-10 -1.7172251e-13)
(3.7330555e-07 2.5393384e-09 -1.0155471e-13)
(3.6889691e-07 2.9957227e-09 -1.2492376e-13)
(3.684564e-07 -5.0817393e-10 -1.0362699e-13)
(3.7286919e-07 -9.3884479e-10 -1.3209827e-13)
(2.0263852e-07 3.117149e-09 -8.0988284e-14)
(1.9717755e-07 3.7085013e-09 -9.5934662e-14)
(1.9660986e-07 -1.1001232e-09 -8.1400603e-14)
(2.020727e-07 -1.6655991e-09 -1.0120779e-13)
(1.3461342e-07 3.8344436e-09 -6.4180346e-14)
(1.2775278e-07 4.6000646e-09 -7.3464592e-14)
(1.2701973e-07 -1.8352978e-09 -6.3627251e-14)
(1.3388035e-07 -2.5740652e-09 -7.728439e-14)
(1.4248451e-07 4.7375278e-09 -5.043388e-14)
(1.3378279e-07 5.7283106e-09 -5.6114403e-14)
(1.3283501e-07 -2.7596105e-09 -4.9512087e-14)
(1.4153451e-07 -3.7216717e-09 -5.8846194e-14)
(2.3768752e-07 5.8849038e-09 -3.9250933e-14)
(2.265857e-07 7.1668224e-09 -4.2763481e-14)
(2.2535924e-07 -3.9312589e-09 -3.8369585e-14)
(2.3645544e-07 -5.1815059e-09 -4.4691656e-14)
(4.8000817e-07 7.3501057e-09 -3.0379964e-14)
(4.6580053e-07 9.0087156e-09 -3.2526317e-14)
(4.6421254e-07 -5.4235411e-09 -2.9623441e-14)
(4.7840855e-07 -7.0462011e-09 -3.3865135e-14)
(1.0104897e-06 9.2249423e-09 -2.3423534e-14)
(9.9229032e-07 1.1371242e-08 -2.4701795e-14)
(9.9023333e-07 -7.3280962e-09 -2.2793462e-14)
(1.0084101e-06 -9.4326176e-09 -2.560891e-14)
(2.1220622e-06 1.1623264e-08 -1.799927e-14)
(2.0987686e-06 1.4401365e-08 -1.8739449e-14)
(2.0961031e-06 -9.7586526e-09 -1.748363e-14)
(2.119354e-06 -1.2487436e-08 -1.9328723e-14)
(4.3964669e-06 1.4684578e-08 -1.3786559e-14)
(4.3667255e-06 1.8281837e-08 -1.4197751e-14)
(4.3632703e-06 -1.2854681e-08 -1.3371198e-14)
(4.3929331e-06 -1.6393257e-08 -1.4562227e-14)
(8.957855e-06 1.8576664e-08 -1.05253e-14)
(8.9200347e-06 2.3237088e-08 -1.0695599e-14)
(8.9155545e-06 -1.6784046e-08 -1.0195759e-14)
(8.9532339e-06 -2.1374525e-08 -1.095196e-14)
(1.7927548e-05 2.349594e-08 -8.0108158e-15)
(1.7879734e-05 2.9537852e-08 -8.0374978e-15)
(1.7873924e-05 -2.1743399e-08 -7.7529339e-15)
(1.7921491e-05 -2.7702223e-08 -8.2227581e-15)
(3.5215628e-05 2.9663647e-08 -6.0793746e-15)
(3.5155656e-05 3.7502812e-08 -6.0322285e-15)
(3.514812e-05 -2.7954392e-08 -5.8800663e-15)
(3.5207673e-05 -3.5695609e-08 -6.1635481e-15)
(6.7857719e-05 3.7315171e-08 -4.6008545e-15)
(6.7783266e-05 4.7494675e-08 -4.5211151e-15)
(6.7773498e-05 -3.5653012e-08 -4.4485558e-15)
(6.7847258e-05 -4.5718363e-08 -4.6127059e-15)
(0.00012820145 4.6679118e-08 -3.4727251e-15)
(0.00012811022 5.9907121e-08 -3.3837431e-15)
(0.00012809758 -4.5068657e-08 -3.357574e-15)
(0.00012818769 -5.8165574e-08 -3.4467838e-15)
(0.00023736239 5.7942502e-08 -2.6146233e-15)
(0.00023725245 7.5138186e-08 -2.5290061e-15)
(0.00023723611 -5.6389277e-08 -2.5284412e-15)
(0.00023734434 -7.3437127e-08 -2.5717365e-15)
(0.0004304878 7.1198995e-08 -1.9638162e-15)
(0.00043035802 9.35453e-08 -1.8876443e-15)
(0.000430337 -6.9709551e-08 -1.9000056e-15)
(0.00043046424 -9.189267e-08 -1.9160781e-15)
(0.00076445405 8.6379356e-08 -1.4716189e-15)
(0.00076430474 1.1537778e-07 -1.407059e-15)
(0.00076427786 -8.4961169e-08 -1.4248867e-15)
(0.00076442356 -1.1378394e-07 -1.4256059e-15)
(0.0013286224 1.0316746e-07 -1.1004445e-15)
(0.0013284561 1.4068477e-07 -1.0474589e-15)
(0.001328422 -1.0182869e-07 -1.0664712e-15)
(0.0013285835 -1.3916242e-07 -1.0592821e-15)
(0.0022591047 1.2091234e-07 -8.2124889e-16)
(0.0022589272 1.6920101e-07 -7.7878219e-16)
(0.0022588845 -1.1966138e-07 -7.96702e-16)
(0.0022590561 -1.6776479e-07 -7.8611013e-16)
(0.0037565467 1.3855569e-07 -6.1172321e-16)
(0.0037563675 2.0021989e-07 -5.7838132e-16)
(0.0037563149 -1.3740049e-07 -5.9415986e-16)
(0.0037564877 -1.9888546e-07 -5.8261577e-16)
(0.0061066313 1.5460411e-07 -4.5491046e-16)
(0.0061064645 2.3247231e-07 -4.2915211e-16)
(0.0061064009 -1.5355142e-07 -4.4237351e-16)
(0.0061065624 -2.3125512e-07 -4.3117013e-16)
(0.0097012973 1.671823e-07 -3.3733741e-16)
(0.0097011616 2.6404102e-07 -3.1819664e-16)
(0.0097010867 -1.6623681e-07 -3.2923846e-16)
(0.0097012215 -2.6295469e-07 -3.1867426e-16)
(0.015057137 1.7420197e-07 -2.4851717e-16)
(0.015057054 2.9234968e-07 -2.3583709e-16)
(0.015056969 -1.7336571e-07 -2.4595184e-16)
(0.01505706 -2.9140432e-07 -2.3532245e-16)
(0.022825806 1.7366707e-07 -1.8065796e-16)
(0.022825801 3.1427231e-07 -1.7532334e-16)
(0.022825707 -1.7293908e-07 -1.8557027e-16)
(0.022825739 -3.134731e-07 -1.7302586e-16)
(0.03379002 1.641024e-07 -1.2993253e-16)
(0.033790114 3.2640617e-07 -1.3065094e-16)
(0.033790016 -1.6347905e-07 -1.4108366e-16)
(0.033789976 -3.2575254e-07 -1.2671845e-16)
(0.048838381 1.4504381e-07 -9.3276064e-17)
(0.048838591 3.255354e-07 -9.7918191e-17)
(0.048838495 -1.4451975e-07 -1.0726652e-16)
(0.04883838 -3.2502117e-07 -9.201404e-17)
(0.068913601 1.1747148e-07 -6.4040625e-17)
(0.068913933 3.0927734e-07 -7.0732331e-17)
(0.068913844 -1.170411e-07 -8.489276e-17)
(0.068913664 -3.0889183e-07 -6.880304e-17)
(0.094932026 8.4024558e-08 -3.9058489e-17)
(0.09493247 2.7684535e-07 -4.9246896e-17)
(0.094932395 -8.3683604e-08 -7.0213898e-17)
(0.09493217 -2.7657526e-07 -5.5014591e-17)
(0.1276778 4.8833197e-08 -1.8650813e-17)
(0.12767833 2.2978216e-07 -3.0880467e-17)
(0.12767827 -4.8579521e-08 -6.144289e-17)
(0.12767803 -2.2961336e-07 -4.8514565e-17)
(0.16768178 1.6871037e-08 2.3138096e-18)
(0.16768235 1.7243216e-07 -2.3852529e-17)
(0.1676823 -1.6703485e-08 -5.8135759e-17)
(0.1676821 -1.7235009e-07 -3.9346087e-17)
(0.21510197 -7.1130803e-09 1.4202592e-17)
(0.21510252 1.1187598e-07 -1.9817894e-17)
(0.21510249 7.1985695e-09 -5.3920105e-17)
(0.21510235 -1.1186422e-07 -2.9812673e-17)
(0.26962685 -1.9833784e-08 2.5023712e-17)
(0.26962731 5.7106902e-08 -1.9151305e-17)
(0.26962729 1.9849833e-08 -5.2892754e-17)
(0.26962723 -5.7145798e-08 -2.3037119e-17)
(0.33042339 -2.0670695e-08 3.7913532e-17)
(0.33042372 1.7212138e-08 -2.4001032e-17)
(0.33042369 2.0644209e-08 -6.0250442e-17)
(0.33042372 -1.7281044e-08 -1.4671062e-17)
(0.39614705 -1.2710968e-08 2.9079539e-17)
(0.39614722 -1.7859191e-09 -2.4056367e-17)
(0.39614718 1.2711941e-08 -4.7163893e-17)
(0.39614726 1.7506879e-09 -7.6157418e-18)
(0.46502099 -4.183984e-09 5.6325742e-18)
(0.46502103 -3.845154e-09 -1.8834903e-17)
(0.46502101 4.2271146e-09 -1.4708125e-17)
(0.46502107 3.8602613e-09 -3.2247487e-18)
(0.0096887289 -3.9887116e-10 -2.3595215e-10)
(0.0096887389 -5.4842507e-10 1.3757266e-10)
(0.0096887382 5.2310797e-10 5.0790242e-12)
(0.0096887302 5.2910237e-10 1.4628081e-10)
(0.0047683803 -2.4008742e-09 -1.2680435e-09)
(0.0047684125 -2.6926306e-09 -6.8538877e-11)
(0.0047684113 2.5943527e-09 -1.2146037e-10)
(0.004768382 2.6173458e-09 -4.9961166e-11)
(0.001689539 -4.4899707e-09 -1.3828163e-09)
(0.0016895492 -4.9716128e-09 -1.7249096e-10)
(0.0016895472 4.8493643e-09 -1.5985172e-10)
(0.0016895434 4.9514236e-09 -1.4889385e-10)
(0.00158347 -3.9371961e-09 -1.0806119e-09)
(0.0015834659 -4.5446692e-09 -1.7932146e-10)
(0.0015834648 4.3797092e-09 -1.404619e-10)
(0.0015834723 4.6731894e-09 -1.5542942e-10)
(0.0021397694 -1.396932e-09 -7.444338e-10)
(0.0021397472 -2.042703e-09 -1.5340493e-10)
(0.0021397462 1.9321014e-09 -1.080147e-10)
(0.0021397706 2.3239617e-09 -1.3025376e-10)
(0.0023886423 2.4903848e-09 -4.9257312e-10)
(0.0023886175 1.9582098e-09 -1.2576706e-10)
(0.0023886171 -1.8452953e-09 -8.0369636e-11)
(0.002388641 -1.5131705e-09 -1.0594956e-10)
(0.0022509238 5.2509089e-09 -3.2821331e-10)
(0.0022509106 5.030928e-09 -1.0436617e-10)
(0.0022509106 -4.4831435e-09 -6.0553962e-11)
(0.0022509212 -4.4038092e-09 -8.8234629e-11)
(0.0019011864 6.0123574e-09 -2.2442406e-10)
(0.0019011868 6.1137743e-09 -8.8071435e-11)
(0.0019011871 -5.1057702e-09 -4.6973593e-11)
(0.0019011842 -5.2938389e-09 -7.5129591e-11)
(0.0014972354 5.3199229e-09 -1.5734217e-10)
(0.0014972446 5.6172571e-09 -7.4673313e-11)
(0.0014972449 -4.2645518e-09 -3.7492356e-11)
(0.0014972342 -4.6041623e-09 -6.4340454e-11)
(0.0011254304 4.0013739e-09 -1.1232513e-10)
(0.0011254427 4.3621378e-09 -6.2969394e-11)
(0.001125443 -2.7948394e-09 -3.0540226e-11)
(0.00112543 -3.163503e-09 -5.4732598e-11)
(0.00081796685 2.6386103e-09 -8.1129229e-11)
(0.00081797862 2.9785047e-09 -5.2563317e-11)
(0.00081797886 -1.284776e-09 -2.5184426e-11)
(0.00081796696 -1.6079704e-09 -4.5986132e-11)
(0.00057851515 1.5133089e-09 -5.9044273e-11)
(0.00057852467 1.79585e-09 -4.3413265e-11)
(0.00057852484 -2.0721714e-11 -2.0904282e-11)
(0.00057851548 -2.707091e-10 -3.8120051e-11)
(0.00039917547 7.0610312e-10 -4.3235199e-11)
(0.00039918235 9.2518913e-10 -3.5505526e-11)
(0.00039918246 9.1326901e-10 -1.7405558e-11)
(0.00039917584 7.3568252e-10 -3.1217441e-11)
(0.00026887225 1.9812445e-10 -3.1856787e-11)
(0.00026887672 3.6198223e-10 -2.8775239e-11)
(0.00026887678 1.5338477e-09 -1.450706e-11)
(0.00026887259 1.4152689e-09 -2.5311292e-11)
(0.00017676342 -6.4967831e-11 -2.3624183e-11)
(0.00017676592 5.6479864e-11 -2.3115152e-11)
(0.00017676594 1.8944282e-09 -1.2084384e-11)
(0.00017676368 1.8181488e-09 -2.0355191e-11)
(0.0001133909 -1.424539e-10 -1.7622122e-11)
(0.00011339191 -5.0273109e-11 -1.8397658e-11)
(0.0001133919 2.0543408e-09 -1.0040322e-11)
(0.0001133911 2.0043932e-09 -1.6257054e-11)
(7.0964466e-05 -8.7535842e-11 -1.3219534e-11)
(7.0964384e-05 -1.1987445e-11 -1.4520498e-11)
(7.0964346e-05 2.0666335e-09 -8.2813017e-12)
(7.0964594e-05 2.0291914e-09 -1.2913188e-11)
(4.3332256e-05 5.7182576e-11 -9.968495e-12)
(4.3331407e-05 1.2766263e-10 -1.1373615e-11)
(4.3331347e-05 1.9746225e-09 -6.7596808e-12)
(4.3332323e-05 1.9379216e-09 -1.0213157e-11)
(2.5822876e-05 2.6037728e-10 -7.5149517e-12)
(2.5821498e-05 3.3604614e-10 -8.8500992e-12)
(2.5821416e-05 1.8113184e-09 -5.469586e-12)
(2.5822888e-05 1.7649947e-09 -8.0432995e-12)
(1.50245e-05 5.0052159e-10 -5.6727453e-12)
(1.5022751e-05 5.9119159e-10 -6.8375552e-12)
(1.5022645e-05 1.5995686e-09 -4.3767305e-12)
(1.5024462e-05 1.5339708e-09 -6.3073592e-12)
(8.5392963e-06 7.655873e-10 -4.2926294e-12)
(8.5372561e-06 8.8124326e-10 -5.2349722e-12)
(8.5371229e-06 1.3527012e-09 -3.4725071e-12)
(8.5392098e-06 1.2582426e-09 -4.9273976e-12)
(4.7438862e-06 1.0521055e-09 -3.2542575e-12)
(4.7415689e-06 1.203465e-09 -3.9859969e-12)
(4.7414015e-06 1.0754337e-09 -2.7443999e-12)
(4.74375e-06 9.4187703e-10 -3.8150735e-12)
(2.5779074e-06 1.3639827e-09 -2.4699937e-12)
(2.5752672e-06 1.5632004e-09 -3.0239521e-12)
(2.5750558e-06 7.6513201e-10 -2.1538861e-12)
(2.5777161e-06 5.8073871e-10 -2.9236211e-12)
(1.3720572e-06 1.7116231e-09 -1.8761199e-12)
(1.3689936e-06 1.9733365e-09 -2.2873472e-12)
(1.3687251e-06 4.1259484e-10 -1.6789005e-12)
(1.3718012e-06 1.6314574e-10 -2.2254778e-12)
(7.1761762e-07 2.1114615e-09 -1.4259393e-12)
(7.1397731e-07 2.4539922e-09 -1.7262953e-12)
(7.1363413e-07 2.4011009e-12 -1.3030423e-12)
(7.1728197e-07 -3.300871e-10 -1.6869218e-12)
(3.7331811e-07 2.5859981e-09 -1.0845285e-12)
(3.6889174e-07 3.0327386e-09 -1.3006788e-12)
(3.6845111e-07 -4.8705687e-10 -1.0078205e-12)
(3.7288168e-07 -9.2571032e-10 -1.2749792e-12)
(2.0265227e-07 3.1643666e-09 -8.2549232e-13)
(1.9716704e-07 3.7454767e-09 -9.7876688e-13)
(1.965994e-07 -1.0841072e-09 -7.7684501e-13)
(2.0208652e-07 -1.6588878e-09 -9.6157294e-13)
(1.3462963e-07 3.8835092e-09 -6.2858663e-13)
(1.277364e-07 4.6380385e-09 -7.3579682e-13)
(1.2700348e-07 -1.8249968e-09 -5.9693112e-13)
(1.3389668e-07 -2.5748308e-09 -7.2402919e-13)
(1.425041e-07 4.7900879e-09 -4.7753447e-13)
(1.3375924e-07 5.7686797e-09 -5.5265549e-13)
(1.3281151e-07 -2.7557868e-09 -4.5743164e-13)
(1.4155415e-07 -3.7312245e-09 -5.4443284e-13)
(2.3771095e-07 5.9429437e-09 -3.6122942e-13)
(2.2655257e-07 7.2114035e-09 -4.1479831e-13)
(2.2532592e-07 -3.9348749e-09 -3.4969331e-13)
(2.3647866e-07 -5.2015206e-09 -4.0890582e-13)
(4.80035e-07 7.415959e-09 -2.72927e-13)
(4.657539e-07 9.0598351e-09 -3.1123502e-13)
(4.6416518e-07 -5.4358211e-09 -2.6675886e-13)
(4.7843462e-07 -7.0788287e-09 -3.0683825e-13)
(1.0105178e-06 9.3013984e-09 -2.0616313e-13)
(9.9222383e-07 1.1431859e-08 -2.3359783e-13)
(9.9016513e-07 -7.3505974e-09 -2.0310548e-13)
(1.0084365e-06 -9.4805908e-09 -2.30091e-13)
(2.1220863e-06 1.1713609e-08 -1.5570671e-13)
(2.098672e-06 1.4475216e-08 -1.7554832e-13)
(2.0960032e-06 -9.7933338e-09 -1.5437799e-13)
(2.1193748e-06 -1.2554188e-08 -1.7244802e-13)
(4.396476e-06 1.4792606e-08 -1.1756368e-13)
(4.3665823e-06 1.8373599e-08 -1.3210566e-13)
(4.3631211e-06 -1.2903957e-08 -1.1715154e-13)
(4.3929365e-06 -1.6483053e-08 -1.2918538e-13)
(8.9578285e-06 1.8706654e-08 -8.8693137e-14)
(8.9198186e-06 2.3352528e-08 -9.8642034e-14)
(8.9153284e-06 -1.6850812e-08 -8.8735828e-14)
(8.9531981e-06 -2.1492581e-08 -9.6732804e-14)
(1.792745e-05 2.365255e-08 -6.686051e-14)
(1.7879404e-05 2.9683937e-08 -7.3551513e-14)
(1.7873577e-05 -2.1831003e-08 -6.7102252e-14)
(1.7921378e-05 -2.7854789e-08 -7.2399997e-14)
(3.5215397e-05 2.9851696e-08 -5.0363895e-14)
(3.5155147e-05 3.7687763e-08 -5.485854e-14)
(3.5147586e-05 -2.80665e-08 -5.0668282e-14)
(3.5207421e-05 -3.5889962e-08 -5.4164711e-14)
(6.7857258e-05 3.7539241e-08 -3.7907668e-14)
(6.7782482e-05 4.7727895e-08 -4.0918102e-14)
(6.7772676e-05 -3.5793334e-08 -3.8206668e-14)
(6.7846768e-05 -4.5962653e-08 -4.050547e-14)
(0.00012820061 4.6942921e-08 -2.8508864e-14)
(0.00012810902 6.0198879e-08 -3.0517966e-14)
(0.00012809632 -4.5240452e-08 -2.8772645e-14)
(0.00012818681 -5.8468437e-08 -3.0278262e-14)
(0.00023736096 5.8247962e-08 -2.142235e-14)
(0.00023725064 7.5498975e-08 -2.2758601e-14)
(0.00023723422 -5.6594599e-08 -2.1641447e-14)
(0.00023734286 -7.3806962e-08 -2.2623719e-14)
(0.00043048547 7.1545006e-08 -1.6083398e-14)
(0.00043035532 9.3984741e-08 -1.6969258e-14)
(0.00043033418 -6.9948176e-08 -1.6258463e-14)
(0.00043046185 -9.2336481e-08 -1.6896793e-14)
(0.00076445043 8.6760268e-08 -1.2064176e-14)
(0.00076430081 1.1590298e-07 -1.2649532e-14)
(0.00076427376 -8.5229244e-08 -1.2200372e-14)
(0.00076441988 -1.1430567e-07 -1.2613606e-14)
(0.001328617 1.0357143e-07 -9.0408757e-15)
(0.0013284505 1.4129811e-07 -9.4261917e-15)
(0.0013284162 -1.0211722e-07 -9.1447353e-15)
(0.001328578 -1.3976076e-07 -9.4113913e-15)
(0.0022590969 1.2131981e-07 -6.7684258e-15)
(0.0022589194 1.6989739e-07 -7.0210299e-15)
(0.0022588764 -1.1995477e-07 -6.8465813e-15)
(0.0022590483 -1.6843053e-07 -7.0181186e-15)
(0.003756536 1.3893849e-07 -5.0617178e-15)
(0.0037563572 2.0098371e-07 -5.2263922e-15)
(0.0037563041 -1.3767567e-07 -5.119902e-15)
(0.003756477 -1.9959874e-07 -5.2301066e-15)
(0.0061066169 1.5492582e-07 -3.7809772e-15)
(0.0061064511 2.3327461e-07 -3.8871722e-15)
(0.006106387 -1.5377803e-07 -3.8238063e-15)
(0.0061065484 -2.319829e-07 -3.8949319e-15)
(0.0097012791 1.6740039e-07 -2.8206134e-15)
(0.0097011448 2.6483743e-07 -2.8876332e-15)
(0.0097010693 -1.6637909e-07 -2.8519038e-15)
(0.0097012037 -2.6364924e-07 -2.8984867e-15)
(0.015057115 1.7427241e-07 -2.1009385e-15)
(0.015057034 2.9308012e-07 -2.1421853e-15)
(0.015056948 -1.733867e-07 -2.1238408e-15)
(0.015057039 -2.9200358e-07 -2.1548078e-15)
(0.02282578 1.7355135e-07 -1.5617074e-15)
(0.022825778 3.1486342e-07 -1.5856097e-15)
(0.022825684 -1.7280707e-07 -1.5795025e-15)
(0.022825714 -3.1390378e-07 -1.6005841e-15)
(0.033789992 1.6377635e-07 -1.1582038e-15)
(0.033790089 3.2677757e-07 -1.1712024e-15)
(0.033789991 -1.6317572e-07 -1.1727931e-15)
(0.03378995 -3.2593703e-07 -1.1865618e-15)
(0.048838352 1.4450658e-07 -8.5667576e-16)
(0.048838566 3.2561032e-07 -8.6084481e-16)
(0.048838469 -1.4404837e-07 -8.6905289e-16)
(0.048838354 -3.2488858e-07 -8.7982373e-16)
(0.068913573 1.1675196e-07 -6.3083914e-16)
(0.06891391 3.0899774e-07 -6.2743491e-16)
(0.06891382 -1.1643224e-07 -6.4404769e-16)
(0.06891364 -3.0839306e-07 -6.5379336e-16)
(0.094932003 8.3182601e-08 -4.6406401e-16)
(0.094932451 2.7619006e-07 -4.4877205e-16)
(0.094932375 -8.2995509e-08 -4.7469719e-16)
(0.09493215 -2.7570058e-07 -4.919249e-16)
(0.12767778 4.7953039e-08 -3.3788411e-16)
(0.12767831 2.2878513e-07 -3.1364721e-16)
(0.12767826 -4.7890836e-08 -3.52048e-16)
(0.12767802 -2.2840939e-07 -3.7472287e-16)
(0.16768177 1.6046742e-08 -2.4502295e-16)
(0.16768234 1.711958e-07 -2.1200322e-16)
(0.1676823 -1.6097828e-08 -2.6362251e-16)
(0.16768209 -1.7093154e-07 -2.9375351e-16)
(0.21510198 -7.7974795e-09 -1.7398385e-16)
(0.21510252 1.1057242e-07 -1.4505636e-16)
(0.21510249 7.6538157e-09 -2.0590822e-16)
(0.21510235 -1.1041324e-07 -2.3322174e-16)
(0.26962686 -2.0325459e-08 -1.2750431e-16)
(0.26962732 5.5955244e-08 -9.8026446e-17)
(0.2696273 2.0125213e-08 -1.7023056e-16)
(0.26962724 -5.5887781e-08 -1.9685624e-16)
(0.33042341 -2.0964441e-08 -1.0508247e-16)
(0.33042373 1.6401579e-08 -7.6922351e-17)
(0.3304237 2.0760779e-08 -1.4102021e-16)
(0.33042373 -1.640427e-08 -1.7128039e-16)
(0.39614706 -1.2824385e-08 -9.4502703e-17)
(0.39614723 -2.1610689e-09 -6.9342218e-17)
(0.39614719 1.2759386e-08 -1.1996205e-16)
(0.39614728 2.1258738e-09 -1.4064865e-16)
(0.465021 -4.1998523e-09 -4.8993371e-17)
(0.46502104 -3.927e-09 -4.2839441e-17)
(0.46502102 4.2392127e-09 -8.0237332e-17)
(0.46502107 3.9337699e-09 -8.5812483e-17)
)
;

boundaryField
{
    movingWall
    {
        type            fixedValue;
        value           uniform (0.5 0 0);
    }
    CPLReceiveMD
    {
        type            fixedValue;
        value           uniform (-0.0098669381 0 0);
    }
    streamwiseIn
    {
        type            cyclic;
    }
    streamwiseOut
    {
        type            cyclic;
    }
    front
    {
        type            cyclic;
    }
    back
    {
        type            cyclic;
    }
    procBoundary1to0
    {
        type            processor;
        value           nonuniform List<vector> 
240
(
(0.0096887289 -4.0323411e-10 2.3595215e-10)
(0.0096887389 -5.4777784e-10 -1.3757266e-10)
(0.0096887382 5.1721071e-10 -5.0790242e-12)
(0.0096887302 5.2870679e-10 -1.4628081e-10)
(0.0047683803 -2.4088856e-09 1.2680435e-09)
(0.0047684125 -2.6937185e-09 6.8538877e-11)
(0.0047684113 2.5874029e-09 1.2146037e-10)
(0.004768382 2.6144209e-09 4.9961166e-11)
(0.001689539 -4.5020584e-09 1.3828163e-09)
(0.0016895492 -4.978743e-09 1.7249096e-10)
(0.0016895472 4.8452027e-09 1.5985173e-10)
(0.0016895434 4.9424213e-09 1.4889385e-10)
(0.00158347 -3.9430458e-09 1.0806119e-09)
(0.0015834659 -4.5527183e-09 1.7932146e-10)
(0.0015834648 4.3835564e-09 1.404619e-10)
(0.0015834723 4.6641876e-09 1.5542942e-10)
(0.0021397694 -1.3948487e-09 7.444338e-10)
(0.0021397472 -2.0495544e-09 1.5340493e-10)
(0.0021397462 1.9407942e-09 1.080147e-10)
(0.0021397706 2.3166728e-09 1.3025376e-10)
(0.0023886423 2.4971261e-09 4.9257312e-10)
(0.0023886175 1.9533718e-09 1.2576706e-10)
(0.0023886171 -1.8347918e-09 8.0369636e-11)
(0.002388641 -1.5188996e-09 1.0594956e-10)
(0.0022509238 5.2593472e-09 3.2821331e-10)
(0.0022509106 5.0266347e-09 1.0436617e-10)
(0.0022509106 -4.4728405e-09 6.0553962e-11)
(0.0022509212 -4.4084487e-09 8.8234629e-11)
(0.0019011864 6.0205389e-09 2.2442406e-10)
(0.0019011868 6.1095627e-09 8.8071435e-11)
(0.0019011871 -5.0967102e-09 4.6973593e-11)
(0.0019011842 -5.2978148e-09 7.5129591e-11)
(0.0014972354 5.326916e-09 1.5734217e-10)
(0.0014972446 5.6134092e-09 7.4673313e-11)
(0.0014972449 -4.2571601e-09 3.7492356e-11)
(0.0014972342 -4.6077654e-09 6.4340454e-11)
(0.0011254304 4.0069972e-09 1.1232513e-10)
(0.0011254427 4.3587471e-09 6.2969394e-11)
(0.001125443 -2.7891642e-09 3.0540226e-11)
(0.00112543 -3.1668625e-09 5.4732598e-11)
(0.00081796685 2.6429918e-09 8.1129229e-11)
(0.00081797862 2.9755503e-09 5.2563317e-11)
(0.00081797886 -1.280661e-09 2.5184426e-11)
(0.00081796696 -1.6111166e-09 4.5986132e-11)
(0.00057851515 1.5166374e-09 5.9044273e-11)
(0.00057852467 1.7931915e-09 4.3413265e-11)
(0.00057852484 -1.7941821e-11 2.0904282e-11)
(0.00057851548 -2.7362917e-10 3.8120051e-11)
(0.00039917547 7.0859495e-10 4.3235199e-11)
(0.00039918235 9.2251104e-10 3.5505526e-11)
(0.00039918245 9.1498123e-10 1.7405558e-11)
(0.00039917584 7.3301652e-10 3.1217441e-11)
(0.00026887225 1.9996529e-10 3.1856787e-11)
(0.00026887672 3.5923737e-10 2.8775239e-11)
(0.00026887678 1.5347613e-09 1.450706e-11)
(0.00026887259 1.4128768e-09 2.5311292e-11)
(0.00017676342 -6.3729842e-11 2.3624183e-11)
(0.00017676592 5.3981771e-11 2.3115152e-11)
(0.00017676594 1.8947529e-09 1.2084384e-11)
(0.00017676368 1.8160268e-09 2.0355191e-11)
(0.0001133909 -1.4193788e-10 1.7622122e-11)
(0.00011339191 -5.2340217e-11 1.8397658e-11)
(0.0001133919 2.0541881e-09 1.0040322e-11)
(0.0001133911 2.0025215e-09 1.6257054e-11)
(7.0964466e-05 -8.7482461e-11 1.3219534e-11)
(7.0964384e-05 -1.3663372e-11 1.4520498e-11)
(7.0964346e-05 2.0662357e-09 8.2813017e-12)
(7.0964594e-05 2.0275651e-09 1.2913188e-11)
(4.3332256e-05 5.7103192e-11 9.968495e-12)
(4.3331407e-05 1.2630023e-10 1.1373615e-11)
(4.3331347e-05 1.9741637e-09 6.7596808e-12)
(4.3332323e-05 1.9365306e-09 1.0213157e-11)
(2.5822876e-05 2.6013108e-10 7.5149517e-12)
(2.5821499e-05 3.3489751e-10 8.8500992e-12)
(2.5821416e-05 1.810824e-09 5.469586e-12)
(2.5822888e-05 1.7638141e-09 8.0432995e-12)
(1.50245e-05 5.0017635e-10 5.6727453e-12)
(1.5022751e-05 5.9021226e-10 6.8375552e-12)
(1.5022645e-05 1.5990682e-09 4.3767305e-12)
(1.5024462e-05 1.5329764e-09 6.3073592e-12)
(8.5392963e-06 7.6523709e-10 4.2926294e-12)
(8.5372561e-06 8.8042534e-10 5.2349722e-12)
(8.5371229e-06 1.3522177e-09 3.4725071e-12)
(8.5392097e-06 1.2574163e-09 4.9273976e-12)
(4.7438862e-06 1.0517771e-09 3.2542575e-12)
(4.7415689e-06 1.2027895e-09 3.9859969e-12)
(4.7414015e-06 1.0750128e-09 2.7443999e-12)
(4.7437499e-06 9.4119357e-10 3.8150735e-12)
(2.5779073e-06 1.3636877e-09 2.4699937e-12)
(2.5752672e-06 1.5626601e-09 3.0239521e-12)
(2.5750558e-06 7.647756e-10 2.1538861e-12)
(2.5777161e-06 5.8017486e-10 2.9236211e-12)
(1.3720572e-06 1.7113672e-09 1.8761199e-12)
(1.3689937e-06 1.9729088e-09 2.2873472e-12)
(1.3687251e-06 4.1229819e-10 1.6789005e-12)
(1.3718012e-06 1.6269356e-10 2.2254778e-12)
(7.1761761e-07 2.1112447e-09 1.4259393e-12)
(7.1397731e-07 2.453656e-09 1.7262953e-12)
(7.1363414e-07 2.1577401e-12 1.3030423e-12)
(7.1728197e-07 -3.3044425e-10 1.6869218e-12)
(3.733181e-07 2.5858177e-09 1.0845285e-12)
(3.6889174e-07 3.0324759e-09 1.3006788e-12)
(3.6845112e-07 -4.8725433e-10 1.0078205e-12)
(3.7288168e-07 -9.2599002e-10 1.2749792e-12)
(2.0265226e-07 3.1642184e-09 8.2549232e-13)
(1.9716704e-07 3.7452725e-09 9.7876688e-13)
(1.965994e-07 -1.0842659e-09 7.7684501e-13)
(2.0208652e-07 -1.6591052e-09 9.6157294e-13)
(1.3462962e-07 3.883388e-09 6.2858663e-13)
(1.277364e-07 4.6378805e-09 7.3579682e-13)
(1.2700348e-07 -1.8251232e-09 5.9693112e-13)
(1.3389668e-07 -2.5749988e-09 7.2402919e-13)
(1.425041e-07 4.789989e-09 4.7753447e-13)
(1.3375924e-07 5.7685579e-09 5.5265549e-13)
(1.3281151e-07 -2.755887e-09 4.5743164e-13)
(1.4155415e-07 -3.7313538e-09 5.4443284e-13)
(2.3771095e-07 5.9428641e-09 3.6122942e-13)
(2.2655257e-07 7.21131e-09 4.1479831e-13)
(2.2532592e-07 -3.9349538e-09 3.4969331e-13)
(2.3647866e-07 -5.2016197e-09 4.0890582e-13)
(4.80035e-07 7.4158963e-09 2.72927e-13)
(4.657539e-07 9.0597634e-09 3.1123502e-13)
(4.6416518e-07 -5.4358829e-09 2.6675886e-13)
(4.7843462e-07 -7.0789044e-09 3.0683825e-13)
(1.0105178e-06 9.3013493e-09 2.0616313e-13)
(9.9222383e-07 1.1431804e-08 2.3359783e-13)
(9.9016513e-07 -7.3506456e-09 2.0310548e-13)
(1.0084365e-06 -9.4806485e-09 2.30091e-13)
(2.1220863e-06 1.1713571e-08 1.5570671e-13)
(2.098672e-06 1.4475174e-08 1.7554832e-13)
(2.0960032e-06 -9.7933711e-09 1.5437799e-13)
(2.1193748e-06 -1.2554232e-08 1.7244802e-13)
(4.396476e-06 1.4792576e-08 1.1756368e-13)
(4.3665823e-06 1.8373567e-08 1.3210566e-13)
(4.3631211e-06 -1.2903986e-08 1.1715154e-13)
(4.3929365e-06 -1.6483086e-08 1.2918538e-13)
(8.9578285e-06 1.8706631e-08 8.8693137e-14)
(8.9198186e-06 2.3352504e-08 9.8642034e-14)
(8.9153284e-06 -1.6850835e-08 8.8735828e-14)
(8.9531981e-06 -2.1492606e-08 9.6732804e-14)
(1.792745e-05 2.3652532e-08 6.686051e-14)
(1.7879404e-05 2.9683919e-08 7.3551513e-14)
(1.7873577e-05 -2.183102e-08 6.7102252e-14)
(1.7921378e-05 -2.7854808e-08 7.2399997e-14)
(3.5215397e-05 2.9851682e-08 5.0363895e-14)
(3.5155147e-05 3.7687749e-08 5.485854e-14)
(3.5147586e-05 -2.8066513e-08 5.0668282e-14)
(3.5207421e-05 -3.5889977e-08 5.4164711e-14)
(6.7857258e-05 3.753923e-08 3.7907668e-14)
(6.7782482e-05 4.7727884e-08 4.0918102e-14)
(6.7772676e-05 -3.5793344e-08 3.8206668e-14)
(6.7846768e-05 -4.5962664e-08 4.050547e-14)
(0.00012820061 4.6942914e-08 2.8508864e-14)
(0.00012810902 6.0198871e-08 3.0517966e-14)
(0.00012809632 -4.524046e-08 2.8772645e-14)
(0.00012818681 -5.8468445e-08 3.0278262e-14)
(0.00023736096 5.8247956e-08 2.142235e-14)
(0.00023725064 7.5498969e-08 2.2758601e-14)
(0.00023723422 -5.6594605e-08 2.1641447e-14)
(0.00023734286 -7.3806968e-08 2.2623719e-14)
(0.00043048547 7.1545002e-08 1.6083398e-14)
(0.00043035532 9.3984737e-08 1.6969258e-14)
(0.00043033418 -6.994818e-08 1.6258463e-14)
(0.00043046185 -9.2336486e-08 1.6896793e-14)
(0.00076445043 8.6760265e-08 1.2064176e-14)
(0.00076430081 1.1590298e-07 1.2649532e-14)
(0.00076427376 -8.5229247e-08 1.2200372e-14)