/*--------------------------------*- C++ -*----------------------------------*\
| =========                 |                                                 |
| \\      /  F ield         | OpenFOAM: The Open Source CFD Toolbox           |
|  \\    /   O peration     | Version:  3.0.1                                 |
|   \\  /    A nd           | Web:      www.OpenFOAM.org                      |
|    \\/     M anipulation  |                                                 |
\*---------------------------------------------------------------------------*/
FoamFile
{
    version     2.0;
    format      ascii;
    class       surfaceScalarField;
    location    "175";
    object      phi;
}
// * * * * * * * * * * * * * * * * * * * * * * * * * * * * * * * * * * * * * //

dimensions      [0 3 -1 0 0 0 0];

internalField   nonuniform List<scalar> 
1072
(
-0.1509689
-7.0335231e-08
-3.8021945e-10
-0.15096883
-8.2640489e-08
4.5190454e-09
-0.15096891
6.9637426e-08
-8.0223912e-10
7.0720899e-08
2.1879251e-09
-0.19604446
-2.6595202e-07
-7.2849223e-09
-0.19604427
-2.701302e-07
3.0412383e-09
-0.19604447
2.8109973e-07
-1.3727255e-10
2.6316675e-07
2.4167351e-09
-0.21377639
-4.0866632e-07
-8.5780249e-09
-0.21377625
-4.0729236e-07
8.8937989e-10
-0.2137764
4.3572865e-07
2.5734989e-10
4.1523167e-07
3.1571656e-09
-0.20507937
-4.6144848e-07
-7.6868716e-09
-0.2050793
-4.6745535e-07
-5.5030565e-13
-0.20507937
4.9595085e-07
-9.2842785e-11
4.8666861e-07
3.0512986e-09
-0.18557702
-3.8613919e-07
-6.1842303e-09
-0.18557707
-4.0555572e-07
-1.1109164e-10
-0.18557702
4.2644318e-07
-4.176782e-10
4.334248e-07
2.7131958e-09
-0.16359015
-2.4336237e-07
-4.755279e-09
-0.16359027
-2.697538e-07
2.3454891e-10
-0.16359015
2.8892939e-07
-6.6832767e-10
3.0558155e-07
2.2940523e-09
-0.14265717
-9.7604284e-08
-3.6911853e-09
-0.1426573
-1.2224893e-07
6.4947805e-10
-0.14265717
1.4790474e-07
-7.5589541e-10
1.6571059e-07
1.965455e-09
-0.12367217
1.9611927e-08
-2.8950286e-09
-0.12367228
1.9255748e-09
9.5520051e-10
-0.12367218
3.4406068e-08
-7.3525405e-10
4.8549017e-08
1.7532364e-09
-0.10634117
1.0638234e-07
-2.3402559e-09
-0.10634126
9.6682628e-08
1.1144152e-09
-0.10634118
-4.9900523e-08
-6.681557e-10
-4.0266349e-08
1.6239595e-09
-0.090107896
1.7624657e-07
-1.9662211e-09
-0.090107967
1.7303471e-07
1.1484142e-09
-0.090107901
-1.1847774e-07
-5.9398266e-10
-1.1206046e-07
1.5363503e-09
-0.074578418
2.446029e-07
-1.6979062e-09
-0.074578487
2.45926e-07
1.0966251e-09
-0.074578421
-1.865065e-07
-5.2781626e-10
-1.8188227e-07
1.4588845e-09
-0.059591905
3.2099882e-07
-1.4846741e-09
-0.059591983
3.2583837e-07
9.9486208e-10
-0.059591908
-2.6331019e-07
-4.6788844e-10
-2.6015437e-07
1.3727932e-09
-0.04512844
4.0760334e-07
-1.3008454e-09
-0.045128529
4.1632903e-07
8.6927004e-10
-0.045128443
-3.5088922e-07
-4.0226512e-10
-3.5028091e-07
1.2703006e-09
-0.031192057
5.0137055e-07
-1.1292305e-09
-0.031192156
5.1555307e-07
7.3678188e-10
-0.031192063
-4.4609126e-07
-3.2787704e-10
-4.5022746e-07
1.1511114e-09
-0.017731114
5.9717099e-07
-9.6695729e-10
-0.017731218
6.1915594e-07
6.0743857e-10
-0.017731122
-5.4371855e-07
-2.5132259e-10
-5.554466e-07
1.0190853e-09
-0.0046052067
6.9020835e-07
-8.1506331e-10
-0.0046053114
7.227463e-07
4.8711251e-10
-0.0046052181
-6.3893517e-07
-1.7044159e-10
-6.6136676e-07
8.7980451e-10
0.008415047
7.7722977e-07
-6.624858e-10
0.0084149448
8.2327511e-07
3.7995903e-10
0.0084150326
-7.2844169e-07
-9.4805705e-11
-7.6477642e-07
7.3898908e-10
0.02163251
8.5673427e-07
-5.1964116e-10
0.021632412
9.194019e-07
2.8737123e-10
0.021632492
-8.1064538e-07
-5.2517781e-11
-8.641882e-07
6.0157649e-10
0.035404801
9.2855916e-07
-3.7994822e-10
0.035404706
1.0112164e-06
2.0883872e-10
0.03540478
-8.8537965e-07
3.5359141e-12
-9.5956373e-07
4.7151445e-10
0.050128945
9.9339203e-07
-2.821817e-10
0.050128853
1.0996994e-06
1.4342369e-10
0.05012892
-9.5320983e-07
5.4930382e-11
-1.0517676e-06
3.5144099e-10
0.066231601
1.0520662e-06
-1.9589613e-10
0.066231511
1.1861695e-06
8.978769e-11
0.066231572
-1.0149217e-06
1.0246654e-10
-1.1420266e-06
2.4293609e-10
0.084164538
1.1052421e-06
-1.218196e-10
0.084164449
1.2718533e-06
4.6460243e-11
0.084164504
-1.0711219e-06
1.4682206e-10
-1.23145e-06
1.3391557e-10
0.10440401
1.1531624e-06
-6.0389446e-11
0.10440392
1.3576063e-06
1.2103099e-11
0.10440397
-1.1220059e-06
1.8753628e-10
-1.320863e-06
5.0115315e-11
0.1274525
1.1955607e-06
-1.1236431e-11
0.12745241
1.4437789e-06
-1.4061206e-11
0.12745245
-1.1672649e-06
2.2464249e-10
-1.410572e-06
-1.7239897e-11
0.15384144
1.2316674e-06
2.651919e-11
0.15384135
1.530169e-06
-3.3683705e-11
0.15384139
-1.2060943e-06
2.5828233e-10
-1.5003379e-06
-7.2837447e-11
0.18413412
1.2602791e-06
5.4015069e-11
0.18413403
1.6160425e-06
-4.8833881e-11
0.18413406
-1.237263e-06
2.8862991e-10
-1.5893986e-06
-1.1818494e-10
0.21892788
1.2798607e-06
7.2475095e-11
0.2189278
1.7001756e-06
-5.8392677e-11
0.21892782
-1.2592159e-06
3.1582621e-10
-1.6765155e-06
-1.5426616e-10
0.25885553
1.2886618e-06
8.3111961e-11
0.25885545
1.780917e-06
-6.373884e-11
0.25885546
-1.2701902e-06
3.3994949e-10
-1.7600295e-06
-1.8194172e-10
0.30458547
1.2848381e-06
8.7063079e-11
0.30458539
1.8562451e-06
-6.5256375e-11
0.30458539
-1.2683353e-06
3.6099885e-10
-1.8379171e-06
-2.0201989e-10
0.35682067
1.2665722e-06
8.5360031e-11
0.3568206
1.9238209e-06
-6.3224506e-11
0.35682059
-1.2518334e-06
3.7889132e-10
-1.9078432e-06
-2.1526283e-10
0.41629629
1.2321936e-06
7.8922838e-11
0.41629622
1.9810411e-06
-5.784157e-11
0.41629619
-1.219019e-06
3.9346865e-10
-1.9672123e-06
-2.2238467e-10
0.48377591
1.1802976e-06
6.8569357e-11
0.48377586
2.0250918e-06
-4.9247934e-11
0.48377581
-1.1684962e-06
4.0451023e-10
-2.0132211e-06
-2.2405348e-10
0.56004654
1.1098614e-06
5.5031997e-11
0.56004651
2.0530091e-06
-3.7546122e-11
0.56004644
-1.0992548e-06
4.1174988e-10
-2.0429188e-06
-2.208981e-10
0.64591208
1.0203565e-06
3.8977482e-11
0.64591207
2.0617516e-06
-2.2817132e-11
0.64591198
-1.0107812e-06
4.1489512e-10
-2.0532774e-06
-2.1351776e-10
0.74218556
9.1185316e-07
2.1024994e-11
0.74218557
2.0482867e-06
-5.1335271e-12
0.74218546
-9.0316218e-07
4.136481e-10
-2.0412785e-06
-2.0249245e-10
0.84967999
7.85111e-07
1.7617158e-12
0.84968002
2.0096967e-06
1.5431282e-11
0.8496799
-7.7717486e-07
4.0772749e-10
-2.0040174e-06
-1.8839236e-10
0.96919798
6.4165019e-07
-1.8246528e-11
0.96919804
1.9433041e-06
3.8795357e-11
0.9691979
-6.3435677e-07
3.9689059e-10
-1.9388288e-06
-1.7178523e-10
1.1015202
4.8379455e-07
-3.8449748e-11
1.1015203
1.8468182e-06
6.4860388e-11
1.1015201
-4.7704844e-07
3.8095478e-10
-1.8434316e-06
-1.5324098e-10
1.2473927
3.1467918e-07
-5.8313088e-11
1.2473928
1.7185e-06
9.3515316e-11
1.2473927
-3.0840041e-07
3.5981898e-10
-1.7160947e-06
-1.333333e-10
1.4075138
1.3821491e-07
-7.7321524e-11
1.407514
1.5573448e-06
1.2462868e-10
1.4075138
-1.3233707e-07
3.3348323e-10
-1.5558182e-06
-1.1263786e-10
1.5825198
-4.0996645e-08
-9.5113702e-11
1.58252
1.3632753e-06
1.5804412e-10
1.5825198
4.6528807e-08
3.0206611e-10
-1.362527e-06
-9.1727706e-11
1.7729709
-2.1780261e-07
-1.1099414e-10
1.7729711
1.1373396e-06
1.9357767e-10
1.7729709
2.2303539e-07
2.6582004e-10
-1.1372687e-06
-7.116561e-11
1.9793366
-3.8669209e-07
-1.2473992e-10
1.9793369
8.8190528e-07
2.3101824e-10
1.9793367
3.9166593e-07
2.2514443e-10
-8.8240743e-07
-5.1492259e-11
2.201982
-5.4204258e-07
-1.3605626e-10
2.2019823
6.0083791e-07
2.7012856e-10
2.2019821
5.4679499e-07
1.8059678e-10
-6.0180281e-07
-3.3213673e-11
2.4411542
-6.7841059e-07
-1.4475529e-10
2.4411545
2.9965284e-07
3.1064934e-10
2.4411543
6.8297904e-07
1.3290236e-10
-3.0096231e-07
-1.6787774e-11
2.6969699
-7.9085362e-07
-1.5077853e-10
2.6969703
-1.4374112e-08
3.5230573e-10
2.6969701
7.9527798e-07
8.2963507e-11
1.284747e-08
-2.6032287e-12
2.9694049
-8.7526389e-07
-1.5421857e-10
2.9694053
-3.3215249e-07
3.9481491e-10
2.9694052
8.7958803e-07
3.1867717e-11
3.3054509e-07
9.0532026e-12
3.2582844
-9.2868887e-07
-1.5534096e-10
3.2582847
-6.4279683e-07
4.3787882e-10
3.2582846
9.3296e-07
-1.9110481e-11
6.4125232e-07
1.7933013e-11
3.5632759
-9.4960655e-07
-1.5459755e-10
3.5632762
-9.3374334e-07
4.8118477e-10
3.5632762
9.538719e-07
-6.8506554e-11
9.3240722e-07
2.3952224e-11
3.8838849
-9.3812077e-07
-1.526352e-10
3.8838852
-1.1909927e-06
5.2435626e-10
3.8838852
9.4241938e-07
-1.1468544e-10
1.1900029e-06
2.7107206e-11
4.2194525
-8.9603861e-07
-1.502887e-10
4.2194527
-1.3995239e-06
5.6688073e-10
4.2194527
9.0038713e-07
-1.5588547e-10
1.398996e-06
2.7492337e-11
4.5691558
-8.2679548e-07
-1.4855005e-10
4.569156
-1.5439483e-06
6.0797736e-10
4.5691561
8.3116704e-07
-1.9030742e-10
1.5439552e-06
2.5307493e-11
4.9320123
-7.3520431e-07
-1.4850677e-10
4.9320124
-1.6095098e-06
6.4639795e-10
4.9320124
7.3950128e-07
-2.1622483e-10
1.6100581e-06
2.0887954e-11
5.3068856
-6.270309e-07
-1.5122983e-10
5.3068856
-1.5836005e-06
6.8014686e-10
5.3068857
6.3105588e-07
-2.3217909e-10
1.5846084e-06
1.4820423e-11
5.6924958
-5.0845006e-07
-1.5760852e-10
5.6924957
-1.4580565e-06
7.0608259e-10
5.6924958
5.1188461e-07
-2.3705709e-10
1.4593456e-06
8.2587671e-12
6.0874315
-3.8553252e-07
-1.6815954e-10
6.0874313
-1.2326478e-06
7.1935129e-10
6.0874314
3.8794023e-07
-2.2988446e-10
1.233968e-06
3.6127667e-12
6.490165
-2.64058e-07
-1.8295941e-10
6.4901647
-9.2029582e-07
7.1298552e-10
6.4901648
2.6493822e-07
-2.0912838e-10
9.2140824e-07
5.6238126e-12
6.8990701
-1.5014083e-07
-2.0222239e-10
6.8990697
-5.545008e-07
6.7722265e-10
6.8990698
1.4908435e-07
-1.7091642e-10
5.5533876e-07
2.3127292e-11
7.3124413
-5.3148194e-08
-2.2603349e-10
7.3124409
-2.0177098e-07
6.0181618e-10
7.312441
5.0253955e-08
-1.1322101e-10
2.0263625e-07
6.564639e-11
7.7285156
-2.3115451e-10
7.7285154
4.0645319e-10
7.7285155
-1.8455477e-11
1.4325315e-10
-0.15096889
-7.4508989e-08
-0.15096882
-8.4749606e-08
-0.15096889
7.285229e-08
7.6843628e-08
-0.19604443
-2.664154e-07
-0.19604425
-2.7241474e-07
-0.19604443
2.7626148e-07
2.5902787e-07
-0.21377634
-4.0395615e-07
-0.2137762
-4.0244124e-07
-0.21377633
4.1914061e-07
3.9592099e-07
-0.20507932
-4.5906068e-07
-0.20507925
-4.6195745e-07
-0.20507931
4.768942e-07
4.616087e-07
-0.18557697
-3.8627088e-07
-0.18557703
-4.0168372e-07
-0.18557696
4.0766194e-07
4.0674014e-07
-0.16359012
-2.4662012e-07
-0.16359025
-2.6974503e-07
-0.16359011
2.7285445e-07
2.8033059e-07
-0.14265716
-1.0321785e-07
-0.1426573
-1.2656088e-07
-0.14265716
1.3508888e-07
1.4290712e-07
-0.12367217
1.3168943e-08
-0.12367229
-5.8653369e-09
-0.12367217
2.4582797e-08
2.7956877e-08
-0.10634118
1.0062359e-07
-0.10634127
8.6772008e-08
-0.10634118
-5.7313951e-08
-5.9291503e-08
-0.090107897
1.722953e-07
-0.090107974
1.623424e-07
-0.0901079
-1.2410838e-07
-1.3010296e-07
-0.074578416
2.4283841e-07
-0.074578491
2.3548803e-07
-0.074578419
-1.9085589e-07
-1.9928474e-07
-0.059591903
3.2130316e-07
-0.059591985
3.1631181e-07
-0.059591905
-2.6670908e-07
-2.7700193e-07
-0.045128438
4.0959954e-07
-0.045128531
4.0804011e-07
-0.045128441
-3.5351344e-07
-3.6647516e-07
-0.031192057
5.0459047e-07
-0.031192159
5.0859641e-07
-0.031192062
-4.4801797e-07
-4.6558735e-07
-0.017731116
6.0116586e-07
-0.017731223
6.1349258e-07
-0.017731124
-5.4498807e-07
-5.6979239e-07
-0.0046052121
6.946105e-07
-0.004605319
7.1827736e-07
-0.0046052232
-6.395746e-07
-6.7456908e-07
0.0084150392
7.8176e-07
0.0084149354
8.1988846e-07
0.0084150249
-7.28498e-07
-7.7677387e-07
0.0216325
8.6125041e-07
0.021632401
9.169931e-07
0.021632483
-8.1024383e-07
-8.7498258e-07
0.035404789
9.3301107e-07
0.035404694
1.0096947e-06
0.035404768
-8.8459917e-07
-9.6920379e-07
0.050128932
9.976764e-07
0.05012884
1.0989832e-06
0.050128907
-9.5212763e-07
-1.0603362e-06
0.066231586
1.0561224e-06
0.066231497
1.1861855e-06
0.066231557
-1.013606e-06
-1.1496196e-06
0.084164522
1.1090306e-06
0.084164434
1.2725346e-06
0.084164488
-1.069627e-06
-1.2382253e-06
0.104404
1.1566563e-06
0.10440391
1.3588935e-06
0.10440396
-1.1203729e-06
-1.326908e-06
0.12745248
1.1987368e-06
0.12745239
1.4456153e-06
0.12745243
-1.1655242e-06
-1.4159574e-06
0.15384142
1.2345019e-06
0.15384133
1.5325002e-06
0.15384137
-1.2042683e-06
-1.5051228e-06
0.1841341
1.2627453e-06
0.18413401
1.6188124e-06
0.18413404
-1.2353684e-06
-1.5936299e-06
0.21892786
1.2819288e-06
0.21892777
1.7033306e-06
0.21892779
-1.2572657e-06
-1.6802273e-06
0.25885551
1.2902998e-06
0.25885542
1.784403e-06
0.25885543
-1.2681951e-06
-1.7632433e-06
0.30458545
1.2860132e-06
0.30458537
1.8600058e-06
0.30458536
-1.2663051e-06
-1.8406424e-06
0.35682065
1.2672529e-06
0.35682058
1.9277974e-06
0.35682056
-1.2497785e-06
-1.9100784e-06
0.41629626
1.2323516e-06
0.4162962
1.9851711e-06
0.41629616
-1.2169509e-06
-1.9689462e-06
0.48377588
1.1799102e-06
0.48377584
2.0293094e-06
0.48377578
-1.1664287e-06
-2.0144344e-06
0.56004651
1.1089135e-06
0.56004648
2.0572448e-06
0.56004641
-1.0972044e-06
-2.0435856e-06
0.64591205
1.0188427e-06
0.64591204
2.0659317e-06
0.64591194
-1.0087682e-06
-2.0533668e-06
0.74218553
9.0977974e-07
0.74218554
2.0523341e-06
0.74218543
-9.0121087e-07
-2.0407567e-06
0.84967996
7.8249729e-07
0.84968
2.0135314e-06
0.84967987
-7.7531409e-07
-2.0028494e-06
0.96919795
6.3852993e-07
0.96919801
1.9468439e-06
0.96919787
-6.3261997e-07
-1.9369803e-06
1.1015201
4.8021664e-07
1.1015202
1.84998e-06
1.1015201
-4.7547355e-07
-1.8408713e-06
1.2473927
3.1070796e-07
1.2473928
1.7212014e-06
1.2473926
-3.0702935e-07
-1.7127964e-06
1.4075138
1.3392977e-07
1.4075139
1.5595062e-06
1.4075138
-1.312149e-07
-1.5517636e-06
1.5825198
-4.5502805e-08
1.58252
1.3648222e-06
1.5825198
4.735525e-08
-1.3577076e-06
1.7729709
-2.224245e-07
1.7729711
1.1382054e-06
1.7729709
2.2351932e-07
-1.1316888e-06
1.9793366
-3.9131539e-07
1.9793368
8.820346e-07
1.9793367
3.9176295e-07
-8.760865e-07
2.201982
-5.4654773e-07
2.2019823
6.0018974e-07
2.2019821
5.4646597e-07
-5.9477807e-07
2.4411542
-6.8267758e-07
2.4411545
2.9820436e-07
2.4411543
6.8219352e-07
-2.9329117e-07
2.6969699
-7.9476768e-07
2.6969703
-1.6623865e-08
2.6969701
7.9401792e-07
2.1085207e-08
2.9694049
-8.7872226e-07
2.9694053
-3.3517904e-07
2.9694052
8.7785179e-07
3.3924562e-07
3.2582844
-9.3160777e-07
3.2582847
-6.4654716e-07
3.2582846
9.3076672e-07
6.502856e-07
3.5632759
-9.5192895e-07
3.5632762
-9.3813339e-07
3.5632762
9.5126516e-07
9.4161618e-07
3.8838849
-9.398237e-07
3.8838852
-1.1959061e-06
3.8838852
9.3947035e-07
1.1992028e-06
4.2194525
-8.971394e-07
4.2194527
-1.4048126e-06
4.2194527
8.9719619e-07
1.4079749e-06
4.5691559
-8.2735562e-07
4.569156
-1.549435e-06
4.5691561
8.2786333e-07
1.5524761e-06
4.9320123
-7.3532915e-07
4.9320124
-1.6149944e-06
4.9320125
7.3623965e-07
1.617864e-06
5.3068857
-6.2686299e-07
5.3068856
-1.5888725e-06
5.3068857
6.2801168e-07
1.5914354e-06
5.6924959
-5.0815415e-07
5.6924957
-1.4629186e-06
5.6924959
5.0924926e-07
1.4649494e-06
6.0874315
-3.8527165e-07
6.0874313
-1.236964e-06
6.0874314
3.8592633e-07
1.23818e-06
6.4901651
-2.6396635e-07
6.4901647
-9.2408928e-07
6.4901649
2.638115e-07
9.2425003e-07
6.8990701
-1.5030725e-07
6.8990697
-5.5814837e-07
6.8990698
1.4923456e-07
5.5726051e-07
7.3124413
-5.3607565e-08
7.3124409
-2.0586648e-07
7.312441
5.2145818e-08
2.045832e-07
7.7285156
7.7285154
7.7285155
)
;

boundaryField
{
    movingWall
    {
        type            calculated;
        value           uniform 0;
    }
    CPLReceiveMD
    {
        type            calculated;
        value           uniform 0;
    }
    streamwiseIn
    {
        type            cyclic;
        value           nonuniform List<scalar> 
120
(
0.15096897
0.19604465
0.21377653
0.20507943
0.18557696
0.16359001
0.14265702
0.12367205
0.10634108
0.090107822
0.074578345
0.059591824
0.045128349
0.031191959
0.017731014
0.0046051103
-0.0084151372
-0.021632592
-0.035404875
-0.050129012
-0.066231661
-0.084164593
-0.10440406
-0.12745254
-0.15384148
-0.18413415
-0.2189279
-0.25885554
-0.30458547
-0.35682066
-0.41629625
-0.48377586
-0.56004647
-0.64591199
-0.74218545
-0.84967986
-0.96919783
-1.10152
-1.2473925
-1.4075136
-1.5825196
-1.7729707
-1.9793364
-2.2019818
-2.441154
-2.6969698
-2.9694049
-3.2582843
-3.5632759
-3.8838849
-4.2194525
-4.5691559
-4.9320124
-5.3068857
-5.6924959
-6.0874316
-6.4901651
-6.8990702
-7.3124414
-7.7285157
0.15096895
0.19604462
0.21377648
0.20507938
0.18557691
0.16358999
0.14265703
0.12367206
0.1063411
0.090107834
0.074578353
0.059591831
0.045128354
0.031191966
0.017731022
0.0046051202
-0.0084151257
-0.02163258
-0.035404861
-0.050128997
-0.066231646
-0.084164577
-0.10440404
-0.12745252
-0.15384146
-0.18413413
-0.21892788
-0.25885552
-0.30458544
-0.35682063
-0.41629622
-0.48377583
-0.56004644
-0.64591196
-0.74218542
-0.84967983
-0.9691978
-1.10152
-1.2473925
-1.4075136
-1.5825196
-1.7729707
-1.9793364
-2.2019818
-2.441154
-2.6969698
-2.9694049
-3.2582843
-3.5632759
-3.8838849
-4.2194525
-4.5691559
-4.9320124
-5.3068858
-5.692496
-6.0874317
-6.4901652
-6.8990702
-7.3124414
-7.7285157
)
;
    }
    streamwiseOut
    {
        type            cyclic;
        value           nonuniform List<scalar> 
120
(
-0.15096897
-0.19604465
-0.21377653
-0.20507943
-0.18557696
-0.16359001
-0.14265702
-0.12367205
-0.10634108
-0.090107822
-0.074578345
-0.059591824
-0.045128349
-0.031191959
-0.017731014
-0.0046051103
0.0084151372
0.021632592
0.035404875
0.050129012
0.066231661
0.084164593
0.10440406
0.12745254
0.15384148
0.18413415
0.2189279
0.25885554
0.30458547
0.35682066
0.41629625
0.48377586
0.56004647
0.64591199
0.74218545
0.84967986
0.96919783
1.10152
1.2473925
1.4075136
1.5825196
1.7729707
1.9793364
2.2019818
2.441154
2.6969698
2.9694049
3.2582843
3.5632759
3.8838849
4.2194525
4.5691559
4.9320124
5.3068857
5.6924959
6.0874316
6.4901651
6.8990702
7.3124414
7.7285157
-0.15096895
-0.19604462
-0.21377648
-0.20507938
-0.18557691
-0.16358999
-0.14265703
-0.12367206
-0.1063411
-0.090107834
-0.074578353
-0.059591831
-0.045128354
-0.031191966
-0.017731022
-0.0046051202
0.0084151257
0.02163258
0.035404861
0.050128997
0.066231646
0.084164577
0.10440404
0.12745252
0.15384146
0.18413413
0.21892788
0.25885552
0.30458544
0.35682063
0.41629622
0.48377583
0.56004644
0.64591196
0.74218542
0.84967983
0.9691978
1.10152
1.2473925
1.4075136
1.5825196
1.7729707
1.9793364
2.2019818
2.441154
2.6969698
2.9694049
3.2582843
3.5632759
3.8838849
4.2194525
4.5691559
4.9320124
5.3068858
5.692496
6.0874317
6.4901652
6.8990702
7.3124414
7.7285157
)
;
    }
    front
    {
        type            cyclic;
        value           nonuniform 0();
    }
    back
    {
        type            cyclic;
        value           nonuniform 0();
    }
    procBoundary1to0
    {
        type            processor;
        value           nonuniform List<scalar> 
240
(
-6.6633779e-10
4.1702336e-09
-1.7175483e-09
2.1816424e-09
-7.7238953e-09
3.0622864e-09
-8.6656307e-10
2.546458e-09
-9.1855887e-09
9.9130407e-10
-6.4054963e-10
3.0871766e-09
-8.4043832e-09
2.0472419e-10
-8.9221764e-10
3.0927565e-09
-6.8768205e-09
1.3898553e-10
-1.1127665e-09
2.8350143e-09
-5.2987795e-09
4.8854455e-10
-1.2732899e-09
2.4620669e-09
-4.1445607e-09
8.8257451e-10
-1.2688288e-09
2.1491956e-09
-3.2884013e-09
1.156933e-09
-1.149354e-09
1.9308074e-09
-2.6545533e-09
1.2815073e-09
-9.8540675e-10
1.7818448e-09
-2.1975133e-09
1.2808334e-09
-8.2368763e-10
1.6677928e-09
-1.8614086e-09
1.1971016e-09
-6.8178651e-10
1.5620484e-09
-1.5950351e-09
1.0679074e-09
-5.5953093e-10
1.4493365e-09
-1.3678484e-09
9.2009202e-10
-4.5091283e-10
1.3238596e-09
-1.1662816e-09
7.7044606e-10
-3.5072856e-10
1.1860675e-09
-9.8159349e-10
6.2844895e-10
-2.5544305e-10
1.0397967e-09
-8.0486574e-10
4.9936441e-10
-1.6584547e-10
8.9015871e-10
-6.4336293e-10
3.8650606e-10
-9.1666833e-11
7.4218021e-10
-4.9609269e-10
2.9023381e-10
-4.094487e-11
6.0012115e-10
-3.5282941e-10
2.0947449e-10
1.7443059e-11
4.6728065e-10
-2.6143558e-10
1.4281094e-10
6.91536e-11
3.4585642e-10
-1.7629804e-10
8.8540661e-11
1.1584604e-10
2.4249729e-10
-1.0425816e-10
4.4936055e-11
1.5876578e-10
1.2639894e-10
-4.5224751e-11
1.2894686e-11
1.9782132e-10
4.3563285e-11
1.4992428e-12
-1.3340962e-11
2.3326376e-10
-2.2896556e-11
3.6984549e-11
-3.3721428e-11
2.6535915e-10
-7.7554588e-11
6.2464475e-11
-4.9440753e-11
2.9434167e-10
-1.2202305e-10
7.9198021e-11
-5.9223392e-11
3.2037228e-10
-1.5733747e-10
8.8396253e-11
-6.4390349e-11
3.4352566e-10
-1.8437177e-10
9.1174482e-11
-6.5765636e-11
3.6378468e-10
-2.0392834e-10
8.8532061e-11
-6.3622127e-11
3.8104397e-10
-2.1675503e-10
8.1353511e-11
-5.8152587e-11
3.9512115e-10
-2.2354912e-10
7.0422078e-11
-4.9492228e-11
4.057723e-10
-2.2496224e-10
5.6438722e-11
-3.773918e-11
4.1271015e-10
-2.216085e-10
4.0042936e-11
-2.2970775e-11
4.1562398e-10
-2.1407477e-10
2.1831067e-11
-5.2567265e-12
4.1420066e-10
-2.0293091e-10
2.3716555e-12
1.5331774e-11
4.0814643e-10
-1.8873908e-10
-1.7784382e-11
3.8714419e-11
3.9720861e-10
-1.7206069e-10
-3.8098744e-11
6.4794148e-11
3.8119672e-10
-1.5346081e-10
-5.8045604e-11
9.3460822e-11
3.6000363e-10
-1.3350948e-10
-7.7116858e-11
1.2458368e-10
3.3362467e-10
-1.1277953e-10
-9.4918187e-11
1.5800687e-10
3.0217494e-10
-9.1841932e-11
-1.1084171e-10
1.9354681e-10
2.6590415e-10
-7.1257875e-11
-1.2462125e-10
2.3099266e-10
2.2520969e-10
-5.1566834e-11
-1.3596356e-10
2.7010739e-10
1.8064755e-10
-3.3273944e-11
-1.4468263e-10
3.1063184e-10
1.3294198e-10
-1.6836463e-11
-1.5072134e-10
3.522913e-10
8.2994431e-11
-2.6424706e-12
-1.5417348e-10
3.9480298e-10
3.1891952e-11
9.0302042e-12
-1.553054e-10
4.3786893e-10
-1.9091414e-11
1.791464e-11
-1.545696e-10
4.8117662e-10
-6.8491527e-11
2.3937594e-11
-1.526132e-10
5.243496e-10
-1.1467365e-10
2.7095559e-11
-1.5027136e-10
5.668754e-10
-1.5587625e-10
2.7483065e-11
-1.4853636e-10
6.0797307e-10
-1.9029858e-10
2.5300053e-11
-1.4849587e-10
6.4639444e-10
-2.1621795e-10
2.0881916e-11
-1.5122125e-10
6.8014397e-10
-2.3217376e-10
1.4815674e-11
-1.5760192e-10
7.0608022e-10
-2.3705294e-10
8.2549974e-12
-1.6815434e-10
7.1934933e-10
-2.2988121e-10
3.6097307e-12
-1.8295529e-10
7.1298382e-10
-2.0912576e-10
5.6213111e-12
-2.02219e-10
6.7722096e-10
-1.7091425e-10
2.3125205e-11
-2.2603052e-10
6.0181453e-10
-1.1321911e-10
6.5644583e-11
-2.3115212e-10
4.0645219e-10
-1.8454213e-11
1.4325159e-10
)
;
    }
    procBoundary1to0throughback
    {
        type            processorCyclic;
        value           nonuniform List<scalar> 
240
(
5.0687704e-09
-3.6629462e-10
-1.7156074e-09
-3.6117373e-09
-4.1335734e-09
-3.5208922e-09
-2.59143e-09
-1.6973236e-09
-1.0605043e-09
-7.3197816e-10
-3.6765212e-10
-6.3414067e-11
1.3612159e-10
2.5239657e-10
3.0534604e-10
3.1217314e-10
3.1322442e-10
2.4553348e-10
1.7548813e-10
1.1878313e-10
6.8913544e-11
2.4839827e-11
-1.2953956e-11
-4.3933088e-11
-6.7898507e-11
-8.5003608e-11
-9.5666389e-11
-1.0046385e-10
-1.0004474e-10
-9.5071255e-11
-8.6186169e-11
-7.3999665e-11
-5.9089502e-11
-4.2006433e-11
-2.3283563e-11
-3.4435169e-12
1.6996277e-11
3.7522022e-11
5.762612e-11
7.6814293e-11
9.4702048e-11
1.1068772e-10
1.2451331e-10
1.3588901e-10
1.4463201e-10
1.5068772e-10
1.5415173e-10
1.5529178e-10
1.5456152e-10
1.5260886e-10
1.502694e-10
1.4853592e-10
1.4849637e-10
1.512222e-10
1.5760278e-10
1.681552e-10
1.829562e-10
2.0222006e-10
2.2603213e-10
2.3115455e-10
1.0936946e-10
-2.893695e-10
8.3017036e-10
3.6939679e-10
-2.4184906e-11
-5.4472063e-10
-1.0136637e-09
-1.3451752e-09
-1.5292727e-09
-1.5840175e-09
-1.5405888e-09
-1.4309945e-09
-1.2823208e-09
-1.1153669e-09
-9.449773e-10
-7.8124546e-10
-6.3092781e-10
-4.974192e-10
-3.8181371e-10
-2.8388719e-10
-2.0246732e-10
-1.3590118e-10
-8.2614405e-11
-4.070934e-11
-8.513382e-12
1.5400677e-11
3.2333277e-11
4.3384686e-11
4.9430623e-11
5.1032085e-11
4.8530287e-11
4.2180376e-11
3.2201304e-11
1.8783569e-11
2.0927429e-12
-1.772253e-11
-4.052154e-11
-6.6160931e-11
-9.4495309e-11
-1.2536733e-10
-1.5860107e-10
-1.9399776e-10
-2.3133512e-10
-2.7036762e-10
-3.1082972e-10
-3.5244181e-10
-3.9491761e-10
-4.3795633e-10
-4.8124319e-10
-5.244003e-10
-5.6691385e-10
-6.0800226e-10
-6.4641656e-10
-6.8016077e-10
-7.0609294e-10
-7.1935932e-10
-7.1299168e-10
-6.772273e-10
-6.0181964e-10
-4.0645497e-10
2.0764321e-09
-3.5654118e-10
-1.7994194e-09
-2.0134111e-09
-1.656376e-09
-1.0636955e-09
-5.6749679e-10
-3.8259411e-10
-2.944437e-10
-2.1548727e-10
-1.5421976e-10
-1.1081691e-10
-8.4078613e-11
-7.2492299e-11
-7.3747911e-11
-8.4630807e-11
-1.0221671e-10
-1.2405434e-10
-1.4699093e-10
-1.7031606e-10
-1.9403864e-10
-2.1963603e-10
-2.4469935e-10
-2.6918115e-10
-2.9277929e-10
-3.1521857e-10
-3.3623911e-10
-3.5557036e-10
-3.7291969e-10
-3.8796658e-10
-4.0036251e-10
-4.0973635e-10
-4.1570389e-10
-4.1788088e-10
-4.1589837e-10
-4.0942012e-10
-3.9816121e-10
-3.8190666e-10
-3.6053062e-10
-3.340142e-10
-3.0246143e-10
-2.6611377e-10
-2.2536223e-10
-1.8075801e-10
-1.3302148e-10
-8.3051375e-11
-3.1932368e-11
1.9063041e-11
6.8471692e-11
1.1465978e-10
1.558666e-10
1.9029187e-10
2.1621335e-10
2.3217054e-10
2.3705065e-10
2.2987946e-10
2.0912444e-10
1.7091352e-10
1.1321904e-10
1.8454564e-11
1.8172634e-09
1.3162416e-10
-1.8327792e-09
-2.5250523e-09
-2.6071162e-09
-2.3893343e-09
-2.1665696e-09
-2.0310975e-09
-1.9690348e-09
-1.9349307e-09
-1.890044e-09
-1.8124775e-09
-1.6966611e-09
-1.5476391e-09
-1.3754544e-09
-1.1911677e-09
-1.0045801e-09
-8.2337598e-10
-6.5312334e-10
-4.9680479e-10
-3.5399503e-10
-2.1913614e-10
-1.2468664e-10
-4.2612113e-11
2.5832861e-11
8.1686212e-11
1.2613054e-10
1.6036493e-10
1.8553864e-10
2.0271384e-10
2.1285456e-10
2.1683148e-10
2.1543481e-10
2.0939078e-10
1.9937847e-10
1.8604479e-10
1.700166e-10
1.519091e-10
1.3233057e-10
1.1188303e-10
9.115949e-11
7.0737886e-11
5.1170137e-11
3.2971055e-11
1.6605009e-11
2.4654766e-12
-9.1655797e-12
-1.8018352e-11
-2.4016984e-11
-2.7156338e-11
-2.7529716e-11
-2.5336089e-11
-2.0910113e-11
-1.4837693e-11
-8.272392e-12
-3.6235164e-12
-5.6325569e-12
-2.3134567e-11
-6.5652252e-11
-1.4325652e-10
)
;
    }
}


// ************************************************************************* //
