/*--------------------------------*- C++ -*----------------------------------*\
| =========                 |                                                 |
| \\      /  F ield         | OpenFOAM: The Open Source CFD Toolbox           |
|  \\    /   O peration     | Version:  3.0.1                                 |
|   \\  /    A nd           | Web:      www.OpenFOAM.org                      |
|    \\/     M anipulation  |                                                 |
\*---------------------------------------------------------------------------*/
FoamFile
{
    version     2.0;
    format      ascii;
    class       volVectorField;
    location    "175";
    object      U;
}
// * * * * * * * * * * * * * * * * * * * * * * * * * * * * * * * * * * * * * //

dimensions      [0 1 -1 0 0 0 0];

internalField   nonuniform List<vector> 
480
(
(-0.0095104499 -4.8886135e-10 1.0841006e-11)
(-0.0095104396 -5.4130901e-10 -6.575858e-12)
(-0.0095104401 4.712212e-10 1.2688747e-11)
(-0.0095104501 4.758971e-10 -1.0105505e-11)
(-0.01235004 -2.6192274e-09 1.9344187e-11)
(-0.012350013 -2.6650035e-09 -1.847753e-11)
(-0.012350014 2.705342e-09 1.5966402e-11)
(-0.012350041 2.5553297e-09 -2.3782324e-11)
(-0.01346708 -5.594186e-09 2.5191388e-11)
(-0.013467058 -5.5958144e-09 -2.3834711e-11)
(-0.013467059 5.9275851e-09 1.6292897e-11)
(-0.013467079 5.5972114e-09 -2.9323193e-11)
(-0.012919197 -7.2938e-09 2.7119269e-11)
(-0.012919184 -7.3218618e-09 -2.4698485e-11)
(-0.012919186 7.7913317e-09 1.5004099e-11)
(-0.012919196 7.5401424e-09 -3.016066e-11)
(-0.011690618 -7.0901504e-09 2.5933568e-11)
(-0.011690621 -7.3035316e-09 -2.2956296e-11)
(-0.011690622 7.6985867e-09 1.3134745e-11)
(-0.011690616 7.6821775e-09 -2.8192023e-11)
(-0.010305527 -5.1125291e-09 2.2786152e-11)
(-0.01030554 -5.5026491e-09 -1.9911233e-11)
(-0.010305541 5.8086831e-09 1.1083103e-11)
(-0.010305526 6.016489e-09 -2.4637614e-11)
(-0.0089868305 -2.6290969e-09 1.87428e-11)
(-0.0089868461 -3.0556914e-09 -1.6402452e-11)
(-0.0089868466 3.4005323e-09 8.9782622e-12)
(-0.0089868304 3.6927244e-09 -2.0412172e-11)
(-0.0077908517 -4.8428235e-10 1.4278546e-11)
(-0.007790865 -8.275788e-10 -1.297353e-11)
(-0.0077908653 1.3183149e-09 6.770615e-12)
(-0.0077908521 1.5793817e-09 -1.6187133e-11)
(-0.006699069 1.099463e-09 1.0002021e-11)
(-0.0066990791 8.8526463e-10 -9.9077487e-12)
(-0.0066990793 -2.1934691e-10 4.6848551e-12)
(-0.0066990695 -3.2049274e-11 -1.2345752e-11)
(-0.0056764375 2.2764169e-09 6.3677608e-12)
(-0.0056764458 2.1804948e-09 -7.3198718e-12)
(-0.0056764459 -1.3681096e-09 2.9257798e-12)
(-0.0056764379 -1.2450226e-09 -9.0619557e-12)
(-0.0046981417 3.3203002e-09 3.6889665e-12)
(-0.0046981499 3.3096136e-09 -5.2281895e-12)
(-0.00469815 -2.3998701e-09 1.5504504e-12)
(-0.004698142 -2.3143446e-09 -6.3816489e-12)
(-0.0037540501 4.4463136e-09 1.7465029e-12)
(-0.0037540593 4.4946948e-09 -3.6043742e-12)
(-0.0037540595 -3.52675e-09 5.3545497e-13)
(-0.0037540503 -3.4625702e-09 -4.286312e-12)
(-0.0028429082 5.7439257e-09 3.4557298e-13)
(-0.0028429188 5.8463396e-09 -2.3919945e-12)
(-0.002842919 -4.8354529e-09 -1.7764317e-13)
(-0.0028429084 -4.7987617e-09 -2.7147102e-12)
(-0.0019649705 7.1938748e-09 -6.0224877e-13)
(-0.0019649823 7.3671577e-09 -1.5193006e-12)
(-0.0019649825 -6.3046685e-09 -6.4825474e-13)
(-0.0019649709 -6.3228863e-09 -1.5824633e-12)
(-0.001116984 8.7194522e-09 -1.1841295e-12)
(-0.0011169962 8.9962189e-09 -9.1262255e-13)
(-0.0011169966 -7.8563247e-09 -9.2745858e-13)
(-0.0011169846 -7.9709812e-09 -8.0007453e-13)
(-0.00029010378 1.0234615e-08 -1.4855531e-12)
(-0.00029011587 1.0656302e-08 -5.0499075e-13)
(-0.0002901163 -9.4035166e-09 -1.0643176e-12)
(-0.00029010467 -9.6628404e-09 -2.840542e-13)
(0.0005301205 1.1672998e-08 -1.549884e-12)
(0.000530109 1.2285186e-08 -2.4131268e-13)
(0.00053010846 -1.0879131e-08 -1.0963646e-12)
(0.00053011936 -1.1333494e-08 3.6939877e-14)
(0.0013627681 1.2997551e-08 -1.4903574e-12)
(0.0013627574 1.3848247e-08 -7.9005822e-14)
(0.0013627567 -1.2245036e-08 -1.0464836e-12)
(0.0013627667 -1.2945838e-08 2.1996815e-13)
(0.0022303675 1.4197273e-08 -1.3716506e-12)
(0.0022303578 1.533747e-08 1.3062021e-14)
(0.0022303569 -1.348943e-08 -9.513858e-13)
(0.0022303659 -1.4489677e-08 3.0926749e-13)
(0.0031579301 1.5278713e-08 -1.221641e-12)
(0.0031579211 1.6763668e-08 5.9550119e-14)
(0.0031579201 -1.4617846e-08 -8.3522089e-13)
(0.0031579282 -1.5973884e-08 3.3869073e-13)
(0.0041723335 1.6255846e-08 -1.0539154e-12)
(0.0041723253 1.8147092e-08 7.866144e-14)
(0.0041723239 -1.5642947e-08 -7.1389872e-13)
(0.0041723313 -1.7417049e-08 3.334326e-13)
(0.0053020374 1.7141791e-08 -8.8661165e-13)
(0.0053020298 1.9509326e-08 8.2766991e-14)
(0.0053020282 -1.6577028e-08 -5.9702607e-13)
(0.005302035 -1.8839121e-08 3.0107033e-13)
(0.006577044 1.7944304e-08 -7.3105638e-13)
(0.0065770371 2.0867678e-08 7.9652924e-14)
(0.0065770352 -1.7427074e-08 -4.9029244e-13)
(0.0065770414 -2.0256241e-08 2.5854465e-13)
(0.0080290072 1.8663323e-08 -5.9294267e-13)
(0.008029001 2.2232038e-08 7.0482333e-14)
(0.0080289986 -1.8192317e-08 -3.9664967e-13)
(0.0080290043 -2.1677721e-08 2.1576185e-13)
(0.0096914062 1.9290441e-08 -4.7437054e-13)
(0.0096914008 2.360359e-08 5.812372e-14)
(0.0096913979 -1.8863738e-08 -3.1693208e-13)
(0.009691403 -2.3104129e-08 1.762762e-13)
(0.011599725 1.980964e-08 -3.7513251e-13)
(0.01159972 2.4974752e-08 4.577124e-14)
(0.011599717 -1.942482e-08 -2.5059465e-13)
(0.011599721 -2.4527361e-08 1.4169419e-13)
(0.013791594 2.0198742e-08 -2.937507e-13)
(0.013791591 2.6329764e-08 3.5176208e-14)
(0.013791587 -1.985301e-08 -1.9637832e-13)
(0.01379159 -2.593132e-08 1.1251098e-13)
(0.016306877 2.0431202e-08 -2.2812375e-13)
(0.016306876 2.7645577e-08 2.6904915e-14)
(0.016306871 -2.0121503e-08 -1.5272423e-13)
(0.016306873 -2.7292779e-08 8.8533976e-14)
(0.019187682 2.0478014e-08 -1.7594719e-13)
(0.019187682 2.8892824e-08 2.0588287e-14)
(0.019187677 -2.0201149e-08 -1.1802322e-13)
(0.019187678 -2.8582299e-08 6.9229023e-14)
(0.022478293 2.0309648e-08 -1.3495889e-13)
(0.022478295 3.0036694e-08 1.5827347e-14)
(0.022478289 -2.0062364e-08 -9.0740366e-14)
(0.022478289 -2.9765086e-08 5.3924336e-14)
(0.02622502 1.9897958e-08 -1.0308438e-13)
(0.026225025 3.1037762e-08 1.2277582e-14)
(0.026225018 -1.9677041e-08 -6.948937e-14)
(0.026225016 -3.080181e-08 4.1933018e-14)
(0.030475968 1.921808e-08 -7.8505889e-14)
(0.030475976 3.1852819e-08 9.6425514e-15)
(0.030475968 -1.9020426e-08 -5.3066734e-14)
(0.030475965 -3.164941e-08 3.2617134e-14)
(0.035280715 1.8250301e-08 -5.9684038e-14)
(0.035280726 3.2435759e-08 7.6840991e-15)
(0.035280718 -1.8072976e-08 -4.0457889e-14)
(0.035280713 -3.2261969e-08 2.5420069e-14)
(0.040689903 1.6981882e-08 -4.5350142e-14)
(0.040689918 3.273862e-08 6.2148645e-15)
(0.040689909 -1.6822172e-08 -3.0826112e-14)
(0.040689902 -3.2591736e-08 1.9877266e-14)
(0.04675475 1.5408802e-08 -3.4478313e-14)
(0.046754769 3.2712825e-08 5.0969245e-15)
(0.046754759 -1.5264243e-08 -2.3496844e-14)
(0.04675475 -3.2590353e-08 1.5611025e-14)
(0.053526473 1.3537322e-08 -2.62544e-14)
(0.053526497 3.2310705e-08 4.2295044e-15)
(0.053526485 -1.340572e-08 -1.7934366e-14)
(0.053526475 -3.2210368e-08 1.2322529e-14)
(0.061055632 1.1385306e-08 -2.0040918e-14)
(0.06105566 3.1487326e-08 3.542762e-15)
(0.061055648 -1.1264743e-08 -1.3718968e-14)
(0.061055636 -3.1407047e-08 9.7783094e-15)
(0.069391405 8.9831541e-09 -1.534578e-14)
(0.069391439 3.0202649e-08 2.9871794e-15)
(0.069391426 -8.8719822e-09 -1.0524063e-14)
(0.069391413 -3.0140523e-08 7.7989296e-15)
(0.078580797 6.3742367e-09 -1.1793926e-14)
(0.078580835 2.8424012e-08 2.5282103e-15)
(0.078580822 -6.271063e-09 -8.1000246e-15)
(0.078580808 -2.8378272e-08 6.2498963e-15)
(0.088667792 3.6147047e-09 -9.0994971e-15)
(0.088667835 2.6128902e-08 2.1426241e-15)
(0.088667821 -3.518366e-09 -6.2563433e-15)
(0.088667807 -2.6097883e-08 5.0281158e-15)
(0.099692477 7.7255317e-10 -7.0450436e-15)
(0.099692526 2.3307961e-08 1.8143657e-15)
(0.099692511 -6.8208218e-10 -4.8513627e-15)
(0.099692497 -2.3290052e-08 4.0577768e-15)
(0.11169014 -2.0741471e-09 -5.4722638e-15)
(0.11169019 1.9968122e-08 1.5330481e-15)
(0.11169018 2.1595583e-09 -3.7754456e-15)
(0.11169016 -1.9961724e-08 3.2814727e-15)
(0.12469036 -4.8398917e-09 -4.2659954e-15)
(0.12469042 1.6135758e-08 1.2913319e-15)
(0.12469041 4.9209328e-09 -2.9454991e-15)
(0.12469039 -1.6139241e-08 2.656067e-15)
(0.13871614 -7.4352513e-09 -3.3370001e-15)
(0.1387162 1.1859687e-08 1.08264e-15)
(0.13871619 7.5125401e-09 -2.3009174e-15)
(0.13871618 -1.1871349e-08 2.1499364e-15)
(0.15378304 -9.7711737e-09 -2.6186214e-15)
(0.15378311 7.213844e-09 9.0309145e-16)
(0.15378309 9.8453016e-09 -1.7994201e-15)
(0.15378308 -7.2318743e-09 1.7394788e-15)
(0.16989843 -1.1763909e-08 -2.0622337e-15)
(0.16989849 2.2994184e-09 7.4964343e-16)
(0.16989848 1.1835481e-08 -1.4047095e-15)
(0.16989847 -2.3218804e-09 1.4047138e-15)
(0.18706075 -1.3340301e-08 -1.6264207e-15)
(0.18706082 -2.7537509e-09 6.220036e-16)
(0.18706081 1.3409967e-08 -1.0978306e-15)
(0.18706081 2.7289441e-09 1.1320792e-15)
(0.20525902 -1.4443094e-08 -1.2824626e-15)
(0.20525909 -7.7868574e-09 5.1591143e-16)
(0.20525907 1.4511551e-08 -8.6030159e-16)
(0.20525907 7.7619136e-09 9.0611768e-16)
(0.22447228 -1.503579e-08 -1.0077691e-15)
(0.22447235 -1.2613115e-08 4.2453608e-16)
(0.22447233 1.5103751e-08 -6.7494776e-16)
(0.22447234 1.2590293e-08 7.2136793e-16)
(0.24466939 -1.5106535e-08 -7.9244452e-16)
(0.24466945 -1.7020454e-08 3.455081e-16)
(0.24466943 1.5174635e-08 -5.266455e-16)
(0.24466944 1.7001957e-08 5.72682e-16)
(0.26580882 -1.4670422e-08 -6.2373093e-16)
(0.26580888 -2.0776533e-08 2.7616147e-16)
(0.26580886 1.4739044e-08 -4.0802375e-16)
(0.26580888 2.076432e-08 4.543045e-16)
(0.28783875 -1.3769622e-08 -4.92021e-16)
(0.28783881 -2.3636823e-08 2.2224813e-16)
(0.28783878 1.3838624e-08 -3.1647967e-16)
(0.28783881 2.3632339e-08 3.6130428e-16)
(0.31069728 -1.2470873e-08 -3.9059751e-16)
(0.31069733 -2.5357216e-08 1.8095716e-16)
(0.3106973 1.2539215e-08 -2.4569097e-16)
(0.31069733 2.5361054e-08 2.8771137e-16)
(0.33431283 -1.0860188e-08 -3.0697912e-16)
(0.33431286 -2.5713851e-08 1.4796475e-16)
(0.33431283 1.0925506e-08 -1.8991191e-16)
(0.33431287 2.5725418e-08 2.2235783e-16)
(0.35860475 -9.0349614e-09 -2.3613982e-16)
(0.35860478 -2.4533238e-08 1.1947736e-16)
(0.35860475 9.0932035e-09 -1.477056e-16)
(0.35860479 2.4550563e-08 1.7209974e-16)
(0.38348415 -7.0934829e-09 -1.8497465e-16)
(0.38348416 -2.1731024e-08 9.7029534e-17)
(0.38348413 7.1389734e-09 -1.1538994e-16)
(0.38348417 2.1750917e-08 1.353632e-16)
(0.40885477 -5.1235842e-09 -1.4610838e-16)
(0.40885478 -1.7356444e-08 7.8728513e-17)
(0.40885474 5.149509e-09 -9.3045347e-17)
(0.40885479 1.737549e-08 1.0922884e-16)
(0.43461418 -3.2119164e-09 -1.1945848e-16)
(0.43461418 -1.1714975e-08 6.687048e-17)
(0.43461414 3.2129755e-09 -7.6836356e-17)
(0.43461419 1.1731004e-08 9.0007177e-17)
(0.46065494 -1.5100698e-09 -1.0300427e-16)
(0.46065493 -5.7352355e-09 5.6966155e-17)
(0.4606549 1.4721479e-09 -6.5750879e-17)
(0.46065494 5.7522315e-09 7.5269278e-17)
(0.48686598 -4.0471651e-10 -7.9356224e-17)
(0.48686597 -1.5315013e-09 3.3699854e-17)
(0.48686596 3.8756188e-10 -4.2737029e-17)
(0.48686598 1.5390969e-09 5.3003458e-17)
(-0.009510449 -4.6673142e-10 2.7229886e-11)
(-0.0095104388 -5.3620072e-10 1.8852824e-10)
(-0.0095104392 5.146969e-10 1.8712124e-11)
(-0.0095104489 5.1777493e-10 1.9334751e-10)
(-0.012350039 -2.6169864e-09 -7.4245091e-10)
(-0.012350012 -2.6744104e-09 9.6771482e-11)
(-0.012350013 2.6917251e-09 -8.4211847e-11)
(-0.012350039 2.5512622e-09 1.0838119e-10)
(-0.013467076 -5.5461771e-09 -9.7793401e-10)
(-0.013467054 -5.5759358e-09 8.0357525e-12)
(-0.013467056 5.7668426e-09 -1.4255237e-10)
(-0.013467075 5.4198896e-09 2.0986543e-11)
(-0.012919194 -7.2369459e-09 -9.3992936e-10)
(-0.012919181 -7.2315964e-09 -4.2159496e-11)
(-0.012919182 7.5030123e-09 -1.5821847e-10)
(-0.012919192 7.1823511e-09 -3.0232052e-11)
(-0.011690615 -7.0807934e-09 -7.8293348e-10)
(-0.011690619 -7.226311e-09 -6.1446345e-11)
(-0.01169062 7.3955466e-09 -1.500156e-10)
(-0.011690613 7.2677614e-09 -5.0892514e-11)
(-0.010305525 -5.1395666e-09 -6.0057078e-10)
(-0.010305539 -5.4664077e-09 -6.3336126e-11)
(-0.010305539 5.5220166e-09 -1.3133885e-10)
(-0.010305524 5.5950448e-09 -5.4327552e-11)
(-0.0089868302 -2.7012733e-09 -4.4202647e-10)
(-0.0089868457 -3.0883275e-09 -5.8653015e-11)
(-0.0089868461 3.1654251e-09 -1.1022516e-10)
(-0.00898683 3.3055489e-09 -5.1128219e-11)
(-0.0077908521 -5.8440565e-10 -3.2018741e-10)
(-0.0077908652 -9.257157e-10 -5.2811966e-11)
(-0.0077908654 1.1374924e-09 -9.0662378e-11)
(-0.0077908525 1.2332222e-09 -4.6705337e-11)
(-0.0066990695 9.9764841e-10 -2.3185596e-10)
(-0.0066990795 7.4100323e-10 -4.7630424e-11)
(-0.0066990796 -3.5464896e-10 -7.4122411e-11)
(-0.00669907 -3.4581025e-10 -4.2773817e-11)
(-0.0056764379 2.1954367e-09 -1.6887736e-10)
(-0.005676446 2.0130481e-09 -4.3131974e-11)
(-0.0056764461 -1.4693093e-09 -6.0623757e-11)
(-0.0056764383 -1.5376333e-09 -3.9341395e-11)
(-0.004698142 3.2726082e-09 -1.2414636e-10)
(-0.00469815 3.1388083e-09 -3.8932971e-11)
(-0.00469815 -2.4771051e-09 -4.9651833e-11)
(-0.0046981422 -2.5942381e-09 -3.6031476e-11)
(-0.0037540503 4.4338927e-09 -9.219634e-11)
(-0.0037540593 4.3343173e-09 -3.4763834e-11)
(-0.0037540594 -3.5870869e-09 -4.0637709e-11)
(-0.0037540504 -3.7336294e-09 -3.2580973e-11)
(-0.0028429083 5.7623675e-09 -6.9026824e-11)
(-0.0028429188 5.7040645e-09 -3.0558948e-11)
(-0.002842919 -4.882819e-09 -3.3164198e-11)
(-0.0028429085 -5.0608634e-09 -2.8946425e-11)
(-0.0019649707 7.2359533e-09 -5.1938083e-11)
(-0.0019649824 7.2459871e-09 -2.6395512e-11)
(-0.0019649826 -6.340771e-09 -2.6944457e-11)
(-0.0019649711 -6.5735557e-09 -2.523173e-11)
(-0.0011169844 8.7774977e-09 -3.9188292e-11)
(-0.0011169965 8.8962487e-09 -2.2405428e-11)
(-0.0011169968 -7.8818096e-09 -2.1769342e-11)
(-0.001116985 -8.2070814e-09 -2.1593393e-11)
(-0.00029010427 1.0301928e-08 -2.9620474e-11)
(-0.00029011627 1.0576191e-08 -1.8712936e-11)
(-0.00029011669 -9.4187234e-09 -1.7473996e-11)
(-0.00029010515 -9.8817357e-09 -1.8173918e-11)
(0.00053011988 1.174436e-08 -2.2378437e-11)
(0.00053010847 1.2223128e-08 -1.5401507e-11)
(0.00053010793 -1.0884591e-08 -1.3903058e-11)
(0.00053011874 -1.1533596e-08 -1.5071104e-11)
(0.0013627673 1.3069663e-08 -1.6830205e-11)
(0.0013627568 1.380247e-08 -1.2511071e-11)
(0.0013627561 -1.224212e-08 -1.0937714e-11)
(0.001362766 -1.3126672e-08 -1.2337641e-11)
(0.0022303667 1.4268653e-08 -1.261571e-11)
(0.002230357 1.5306427e-08 -1.0049718e-11)
(0.0022303562 -1.3479802e-08 -8.5456842e-12)
(0.0022303651 -1.4651674e-08 -9.9920261e-12)
(0.0031579292 1.53482e-08 -9.404566e-12)
(0.0031579203 1.6746023e-08 -7.9947325e-12)
(0.0031579192 -1.4602813e-08 -6.6399474e-12)
(0.0031579273 -1.6118143e-08 -8.0189341e-12)
(0.0041723325 1.6322189e-08 -6.989894e-12)
(0.0041723244 1.8141634e-08 -6.3073787e-12)
(0.004172323 -1.5623693e-08 -5.1346479e-12)
(0.0041723304 -1.7545057e-08 -6.3850148e-12)
(0.0053020363 1.720419e-08 -5.1887995e-12)
(0.0053020289 1.9514957e-08 -4.9424745e-12)
(0.0053020272 -1.6554546e-08 -3.9532318e-12)
(0.005302034 -1.8952922e-08 -5.0200001e-12)
(0.0065770429 1.8002245e-08 -3.8503967e-12)
(0.0065770361 2.0883407e-08 -3.8508648e-12)
(0.0065770341 -1.7402121e-08 -3.0324542e-12)
(0.0065770403 -2.035781e-08 -3.8974382e-12)
(0.008029006 1.8716417e-08 -2.8581127e-12)
(0.0080289999 2.2256946e-08 -2.983406e-12)
(0.0080289974 -1.8165453e-08 -2.3197726e-12)
(0.0080290031 -2.1768325e-08 -3.004228e-12)
(0.0096914049 1.9338318e-08 -2.1229509e-12)
(0.0096913996 2.36368e-08 -2.2975008e-12)
(0.0096913967 -1.8835375e-08 -1.7707023e-12)
(0.0096914017 -2.3184775e-08 -2.3045073e-12)
(0.011599723 1.9851893e-08 -1.5780384e-12)
(0.011599719 2.5015388e-08 -1.7576331e-12)
(0.011599715 -1.9395262e-08 -1.3488641e-12)
(0.01159972 -2.4598886e-08 -1.7608658e-12)
(0.013791592 2.0234918e-08 -1.1738959e-12)
(0.013791589 2.6376954e-08 -1.337579e-12)
(0.013791585 -1.9822485e-08 -1.025687e-12)
(0.013791589 -2.5994365e-08 -1.3411512e-12)
(0.016306876 2.0460801e-08 -8.738743e-13)
(0.016306874 2.7698466e-08 -1.0135525e-12)
(0.016306869 -2.0090194e-08 -7.7866532e-13)
(0.016306872 -2.7347783e-08 -1.0188103e-12)
(0.01918768 2.0500517e-08 -6.5089211e-13)
(0.019187681 2.8950535e-08 -7.6540787e-13)
(0.019187675 -2.0169212e-08 -5.9022268e-13)
(0.019187677 -2.8629504e-08 -7.7227316e-13)
(0.022478291 2.0324538e-08 -4.8498722e-13)
(0.022478293 3.0098312e-08 -5.7664985e-13)
(0.022478287 -2.0029955e-08 -4.4672338e-13)
(0.022478287 -2.9804552e-08 -5.8435083e-13)
(0.026225018 1.9904754e-08 -3.6143386e-13)
(0.026225023 3.1102326e-08 -4.3378956e-13)
(0.026225016 -1.9644328e-08 -3.3762596e-13)
(0.026225014 -3.0833432e-08 -4.4151618e-13)
(0.030475966 1.9216371e-08 -2.6933938e-13)
(0.030475975 3.1919311e-08 -3.2601815e-13)
(0.030475967 -1.8987604e-08 -2.5480791e-13)
(0.030475963 -3.1672942e-08 -3.3321035e-13)
(0.035280713 1.823978e-08 -2.0065944e-13)
(0.035280725 3.2503104e-08 -2.4488381e-13)
(0.035280716 -1.8040282e-08 -1.9202784e-13)
(0.035280711 -3.2277049e-08 -2.5124796e-13)
(0.040689901 1.6962382e-08 -1.4941004e-13)
(0.040689916 3.2805679e-08 -1.8387166e-13)
(0.040689907 -1.6789895e-08 -1.4450452e-13)
(0.0406899 -3.2597909e-08 -1.8932204e-13)
(0.046754748 1.5380324e-08 -1.111686e-13)
(0.046754768 3.2778401e-08 -1.3803486e-13)
(0.046754757 -1.5232731e-08 -1.0858113e-13)
(0.046754748 -3.2587102e-08 -1.4259472e-13)
(0.053526471 1.3500066e-08 -8.2638162e-14)
(0.053526495 3.2373546e-08 -1.0361557e-13)
(0.053526483 -1.3375393e-08 -8.1463493e-14)
(0.053526473 -3.2197141e-08 -1.0737143e-13)
(0.06105563 1.1339689e-08 -6.1359526e-14)
(0.061055659 3.1546141e-08 -7.7775393e-14)
(0.061055646 -1.1236091e-08 -6.1021835e-14)
(0.061055635 -3.1383286e-08 -8.0838829e-14)
(0.069391403 8.9298288e-09 -4.5501274e-14)
(0.069391437 3.0256121e-08 -5.8380089e-14)
(0.069391424 -8.8455709e-09 -4.5635161e-14)
(0.069391411 -3.0105701e-08 -6.0862398e-14)
(0.078580795 6.3141024e-09 -3.3693997e-14)
(0.078580834 2.8470821e-08 -4.3822238e-14)
(0.07858082 -6.2475263e-09 -3.4071688e-14)
(0.078580806 -2.8331926e-08 -4.5827701e-14)
(0.08866779 3.5489039e-09 -2.4909106e-14)
(0.088667834 2.6167754e-08 -3.2897176e-14)
(0.08866782 -3.4983962e-09 -2.5396897e-14)
(0.088667805 -2.6039649e-08 -3.4511366e-14)
(0.099692476 7.0245761e-10 -1.8383781e-14)
(0.099692524 2.3337624e-08 -2.4699017e-14)
(0.09969251 -6.6641249e-10 -1.889815e-14)
(0.099692495 -2.3219708e-08 -2.5993175e-14)
(0.11169014 -2.146957e-09 -1.3537758e-14)
(0.11169019 1.9987465e-08 -1.8545248e-14)
(0.11169018 2.1701788e-09 -1.4038896e-14)
(0.11169016 -1.9879227e-08 -1.9578777e-14)
(0.12469036 -4.9136625e-09 -9.9509696e-15)
(0.12469042 1.6143802e-08 -1.3922099e-14)
(0.1246904 4.9257719e-09 -1.0410352e-14)
(0.12469039 -1.6044768e-08 -1.4752002e-14)
(0.13871614 -7.508113e-09 -7.3010422e-15)
(0.1387162 1.1855654e-08 -1.0449698e-14)
(0.13871619 7.5109242e-09 -7.7073564e-15)
(0.13871618 -1.1765338e-08 -1.1114346e-14)
(0.15378304 -9.8412079e-09 -5.3485935e-15)
(0.15378311 7.197214e-09 -7.8418036e-15)
(0.15378309 9.8366654e-09 -5.695857e-15)
(0.15378308 -7.1150643e-09 -8.3726033e-15)
(0.16989843 -1.1829232e-08 -3.9134743e-15)
(0.16989849 2.2699906e-09 -5.8814415e-15)
(0.16989848 1.1819425e-08 -4.2006636e-15)
(0.16989847 -2.1953376e-09 -6.3076938e-15)
(0.18706075 -1.3399165e-08 -2.8592163e-15)
(0.18706082 -2.7958051e-09 -4.4098749e-15)
(0.18706081 1.3386317e-08 -3.0892837e-15)
(0.18706081 2.8637588e-09 -4.7526336e-15)
(0.20525902 -1.4493994e-08 -2.0866502e-15)
(0.20525909 -7.8409385e-09 -3.3039185e-15)
(0.20525907 1.4480428e-08 -2.2653405e-15)
(0.20525907 7.9031397e-09 -3.579195e-15)
(0.22447228 -1.5077585e-08 -1.5167565e-15)
(0.22447235 -1.267815e-08 -2.47047e-15)
(0.22447233 1.5065634e-08 -1.6615757e-15)
(0.22447234 1.2735672e-08 -2.6956687e-15)
(0.24466939 -1.5138567e-08 -1.099071e-15)
(0.24466945 -1.7094869e-08 -1.8450793e-15)
(0.24466943 1.5130415e-08 -1.2181766e-15)
(0.24466945 1.7148787e-08 -2.0286751e-15)
(0.26580882 -1.4692627e-08 -7.9557955e-16)
(0.26580888 -2.0858247e-08 -1.3728771e-15)
(0.26580886 1.4690064e-08 -8.8999322e-16)
(0.26580888 2.0909458e-08 -1.5293402e-15)
(0.28783876 -1.3782611e-08 -5.7441971e-16)
(0.28783881 -2.3723272e-08 -1.0172922e-15)
(0.28783878 1.3786691e-08 -6.5004447e-16)
(0.28783881 2.3772224e-08 -1.1587562e-15)
(0.31069728 -1.2475962e-08 -4.1432273e-16)
(0.31069733 -2.5445422e-08 -7.4678498e-16)
(0.3106973 1.2486583e-08 -4.7262729e-16)
(0.31069734 2.5491763e-08 -8.880522e-16)
(0.33431283 -1.0859348e-08 -2.9841401e-16)
(0.33431286 -2.5800563e-08 -5.4535049e-16)
(0.33431283 1.0874826e-08 -3.4428125e-16)
(0.33431287 2.5842799e-08 -6.8520054e-16)
(0.35860475 -9.0306487e-09 -2.2018315e-16)
(0.35860478 -2.4615182e-08 -3.9578568e-16)
(0.35860475 9.0474948e-09 -2.5184289e-16)
(0.35860479 2.4650521e-08 -5.3375962e-16)
(0.38348415 -7.0883577e-09 -1.6285819e-16)
(0.38348416 -2.1805235e-08 -2.9671244e-16)
(0.38348413 7.1016086e-09 -1.8736442e-16)
(0.38348418 2.1829891e-08 -4.1523511e-16)
(0.40885478 -5.1202102e-09 -1.1991359e-16)
(0.40885478 -1.7421266e-08 -2.2235008e-16)
(0.40885474 5.1245354e-09 -1.4397328e-16)
(0.40885479 1.743157e-08 -3.3164336e-16)
(0.43461418 -3.2121197e-09 -8.6953329e-17)
(0.43461418 -1.1771815e-08 -1.6727352e-16)
(0.43461415 3.2041138e-09 -1.058459e-16)
(0.43461419 1.17659e-08 -2.687752e-16)
(0.46065494 -1.5160522e-09 -5.1091888e-17)
(0.46065493 -5.8020679e-09 -1.2289109e-16)
(0.4606549 1.4947918e-09 -7.1388453e-17)
(0.46065494 5.7834703e-09 -2.0760648e-16)
(0.48686598 -4.0782278e-10 -2.7672818e-18)
(0.48686597 -1.5597255e-09 -6.2602618e-17)
(0.48686596 4.0094373e-10 -3.3111334e-17)
(0.48686598 1.5499587e-09 -1.1715253e-16)
)
;

boundaryField
{
    movingWall
    {
        type            fixedValue;
        value           uniform (0.5 0 0);
    }
    CPLReceiveMD
    {
        type            fixedValue;
        value           uniform (-0.019260466 0 0);
    }
    streamwiseIn
    {
        type            cyclic;
    }
    streamwiseOut
    {
        type            cyclic;
    }
    front
    {
        type            cyclic;
    }
    back
    {
        type            cyclic;
    }
    procBoundary1to0
    {
        type            processor;
        value           nonuniform List<vector> 
240
(
(-0.009510449 -4.6856018e-10 -2.7229886e-11)
(-0.0095104388 -5.3880719e-10 -1.8852824e-10)
(-0.0095104392 5.0780803e-10 -1.8712124e-11)
(-0.0095104489 5.0748219e-10 -1.9334751e-10)
(-0.012350039 -2.6149362e-09 7.4245091e-10)
(-0.012350012 -2.679588e-09 -9.6771482e-11)
(-0.012350013 2.691082e-09 8.4211847e-11)
(-0.012350039 2.5306066e-09 -1.0838119e-10)
(-0.013467076 -5.5412245e-09 9.7793401e-10)
(-0.013467054 -5.5884185e-09 -8.0357525e-12)
(-0.013467056 5.7797308e-09 1.4255237e-10)
(-0.013467075 5.3939137e-09 -2.0986543e-11)
(-0.012919194 -7.2178364e-09 9.3992936e-10)
(-0.012919181 -7.2515652e-09 4.2159496e-11)
(-0.012919182 7.5245369e-09 1.5821847e-10)
(-0.012919192 7.1526522e-09 3.0232052e-11)
(-0.011690615 -7.0513381e-09 7.8293348e-10)
(-0.011690619 -7.251591e-09 6.1446345e-11)
(-0.01169062 7.4175336e-09 1.500156e-10)
(-0.011690613 7.2346338e-09 5.0892514e-11)
(-0.010305525 -5.1050458e-09 6.0057078e-10)
(-0.010305539 -5.4942375e-09 6.3336126e-11)
(-0.010305539 5.5423088e-09 1.3133885e-10)
(-0.010305524 5.559933e-09 5.4327552e-11)
(-0.0089868302 -2.6650353e-09 4.4202647e-10)
(-0.0089868457 -3.1161109e-09 5.8653015e-11)
(-0.008986846 3.1845001e-09 1.1022516e-10)
(-0.00898683 3.270757e-09 5.1128219e-11)
(-0.0077908521 -5.4896503e-10 3.2018741e-10)
(-0.0077908652 -9.5141709e-10 5.2811966e-11)
(-0.0077908654 1.1553684e-09 9.0662378e-11)
(-0.0077908525 1.2009454e-09 4.6705337e-11)
(-0.0066990695 1.0290703e-09 2.3185596e-10)
(-0.0066990794 7.1857929e-10 4.7630424e-11)
(-0.0066990796 -3.3915977e-10 7.4122411e-11)
(-0.0066990701 -3.7414979e-10 4.2773817e-11)
(-0.0056764379 2.2202876e-09 1.6887736e-10)
(-0.005676446 1.994396e-09 4.3131974e-11)
(-0.0056764461 -1.4569131e-09 6.0623757e-11)
(-0.0056764383 -1.5613794e-09 3.9341395e-11)
(-0.004698142 3.2907281e-09 1.2414636e-10)
(-0.00469815 3.1239448e-09 3.8932971e-11)
(-0.00469815 -2.4677467e-09 4.9651833e-11)
(-0.0046981422 -2.613293e-09 3.6031476e-11)
(-0.0037540503 4.4469964e-09 9.219634e-11)
(-0.0037540593 4.3229545e-09 3.4763834e-11)
(-0.0037540594 -3.5803513e-09 4.0637709e-11)
(-0.0037540504 -3.7482788e-09 3.2580973e-11)
(-0.0028429083 5.7715881e-09 6.9026824e-11)
(-0.0028429188 5.6957151e-09 3.0558948e-11)
(-0.002842919 -4.8782072e-09 3.3164198e-11)
(-0.0028429085 -5.071665e-09 2.8946425e-11)
(-0.0019649707 7.2419745e-09 5.1938083e-11)
(-0.0019649824 7.2400752e-09 2.6395512e-11)
(-0.0019649826 -6.3378427e-09 2.6944457e-11)
(-0.0019649711 -6.5811953e-09 2.523173e-11)
(-0.0011169844 8.7809869e-09 3.9188292e-11)
(-0.0011169965 8.8922083e-09 2.2405428e-11)
(-0.0011169968 -7.8801767e-09 2.1769342e-11)
(-0.001116985 -8.2122511e-09 2.1593393e-11)
(-0.00029010427 1.0303382e-08 2.9620474e-11)
(-0.00029011628 1.0573527e-08 1.8712936e-11)
(-0.00029011669 -9.4180534e-09 1.7473996e-11)
(-0.00029010515 -9.8850582e-09 1.8173918e-11)
(0.00053011988 1.174439e-08 2.2378437e-11)
(0.00053010847 1.2221446e-08 1.5401507e-11)
(0.00053010793 -1.0884653e-08 1.3903058e-11)
(0.00053011874 -1.1535589e-08 1.5071104e-11)
(0.0013627673 1.3068969e-08 1.6830205e-11)
(0.0013627568 1.3801472e-08 1.2511071e-11)
(0.0013627561 -1.2242684e-08 1.0937714e-11)
(0.001362766 -1.3127742e-08 1.2337641e-11)
(0.0022303667 1.4267598e-08 1.261571e-11)
(0.002230357 1.5305888e-08 1.0049718e-11)
(0.0022303562 -1.3480629e-08 8.5456842e-12)
(0.0022303651 -1.4652135e-08 9.9920261e-12)
(0.0031579292 1.5346949e-08 9.404566e-12)
(0.0031579203 1.6745772e-08 7.9947325e-12)
(0.0031579192 -1.4603746e-08 6.6399474e-12)
(0.0031579273 -1.611823e-08 8.0189341e-12)
(0.0041723325 1.6320867e-08 6.989894e-12)
(0.0041723244 1.8141548e-08 6.3073787e-12)
(0.004172323 -1.5624631e-08 5.1346479e-12)
(0.0041723304 -1.75449e-08 6.3850148e-12)
(0.0053020363 1.7202914e-08 5.1887995e-12)
(0.0053020289 1.9514958e-08 4.9424745e-12)
(0.0053020272 -1.6555428e-08 3.9532318e-12)
(0.005302034 -1.8952619e-08 5.0200001e-12)
(0.0065770429 1.8001083e-08 3.8503967e-12)
(0.0065770361 2.0883459e-08 3.8508648e-12)
(0.0065770341 -1.7402913e-08 3.0324542e-12)
(0.0065770403 -2.0357468e-08 3.8974382e-12)
(0.008029006 1.8715401e-08 2.8581127e-12)
(0.0080289999 2.2257033e-08 2.983406e-12)
(0.0080289974 -1.8166139e-08 2.3197726e-12)
(0.0080290031 -2.1767996e-08 3.004228e-12)
(0.0096914049 1.9337455e-08 2.1229509e-12)
(0.0096913996 2.36369e-08 2.2975008e-12)
(0.0096913967 -1.8835953e-08 1.7707023e-12)
(0.0096914017 -2.3184479e-08 2.3045073e-12)
(0.011599723 1.9851178e-08 1.5780384e-12)
(0.011599719 2.501548e-08 1.7576331e-12)
(0.011599715 -1.939574e-08 1.3488641e-12)
(0.01159972 -2.4598632e-08 1.7608658e-12)
(0.013791592 2.0234335e-08 1.1738959e-12)
(0.013791589 2.6377029e-08 1.337579e-12)
(0.013791585 -1.9822873e-08 1.025687e-12)
(0.013791589 -2.5994153e-08 1.3411512e-12)
(0.016306876 2.0460334e-08 8.738743e-13)
(0.016306874 2.7698524e-08 1.0135525e-12)
(0.016306869 -2.0090504e-08 7.7866532e-13)
(0.016306872 -2.7347611e-08 1.0188103e-12)
(0.01918768 2.0500148e-08 6.5089211e-13)
(0.019187681 2.8950579e-08 7.6540787e-13)
(0.019187675 -2.0169458e-08 5.9022268e-13)
(0.019187677 -2.8629366e-08 7.7227316e-13)
(0.022478291 2.0324249e-08 4.8498722e-13)
(0.022478293 3.0098345e-08 5.7664985e-13)
(0.022478287 -2.0030148e-08 4.4672338e-13)
(0.022478287 -2.9804443e-08 5.8435083e-13)
(0.026225018 1.990453e-08 3.6143386e-13)
(0.026225023 3.110235e-08 4.3378956e-13)
(0.026225016 -1.9644477e-08 3.3762596e-13)
(0.026225014 -3.0833347e-08 4.4151618e-13)
(0.030475966 1.9216199e-08 2.6933938e-13)
(0.030475975 3.1919329e-08 3.2601815e-13)
(0.030475967 -1.8987719e-08 2.5480791e-13)
(0.030475963 -3.1672876e-08 3.3321035e-13)
(0.035280713 1.8239648e-08 2.0065944e-13)
(0.035280725 3.2503118e-08 2.4488381e-13)
(0.035280716 -1.804037e-08 1.9202784e-13)
(0.035280711 -3.2276998e-08 2.5124796e-13)
(0.040689901 1.6962282e-08 1.4941003e-13)
(0.040689916 3.2805689e-08 1.8387166e-13)
(0.040689907 -1.6789962e-08 1.4450452e-13)
(0.0406899 -3.259787e-08 1.8932204e-13)
(0.046754748 1.5380249e-08 1.111686e-13)
(0.046754768 3.2778408e-08 1.3803486e-13)
(0.046754757 -1.5232782e-08 1.0858113e-13)
(0.046754748 -3.2587072e-08 1.4259472e-13)
(0.053526471 1.3500009e-08 8.2638161e-14)
(0.053526495 3.2373553e-08 1.0361557e-13)
(0.053526483 -1.3375431e-08 8.1463493e-14)
(0.053526473 -3.2197118e-08 1.0737143e-13)
(0.06105563 1.1339645e-08 6.1359526e-14)
(0.061055659 3.1546146e-08 7.7775393e-14)
(0.061055646 -1.1236121e-08 6.1021835e-14)
(0.061055635 -3.1383268e-08 8.0838829e-14)
(0.069391403 8.9297961e-09 4.5501274e-14)
(0.069391437 3.0256125e-08 5.8380089e-14)
(0.069391424 -8.8455932e-09 4.5635161e-14)
(0.069391411 -3.0105687e-08 6.0862398e-14)
(0.078580795 6.3140777e-09 3.3693997e-14)
(0.078580834 2.8470824e-08 4.3822238e-14)
(0.07858082 -6.2475433e-09 3.4071688e-14)
(0.078580806 -2.8331915e-08 4.5827701e-14)
(0.08866779 3.5488851e-09 2.4909106e-14)
(0.088667834 2.6167757e-08 3.2897176e-14)
(0.08866782 -3.4984091e-09 2.5396896e-14)
(0.088667805 -2.6039641e-08 3.4511366e-14)
(0.099692476 7.0244323e-10 1.8383781e-14)
(0.099692524 2.3337626e-08 2.4699017e-14)
(0.09969251 -6.6642234e-10 1.889815e-14)
(0.099692495 -2.3219701e-08 2.5993175e-14)
(0.11169014 -2.146968e-09 1.3537758e-14)
(0.11169019 1.9987467e-08 1.8545248e-14)
(0.11169018 2.1701712e-09 1.4038896e-14)
(0.11169016 -1.9879221e-08 1.9578777e-14)
(0.12469036 -4.9136709e-09 9.9509696e-15)
(0.12469042 1.6143804e-08 1.3922099e-14)
(0.1246904 4.925766e-09 1.0410352e-14)
(0.12469039 -1.6044763e-08 1.4752002e-14)
(0.13871614 -7.5081195e-09 7.3010422e-15)
(0.1387162 1.1855655e-08 1.0449698e-14)
(0.13871619 7.5109197e-09 7.7073563e-15)
(0.13871618 -1.1765335e-08 1.1114346e-14)
(0.15378304 -9.8412129e-09 5.3485935e-15)
(0.15378311 7.1972153e-09 7.8418036e-15)
(0.15378309 9.8366619e-09 5.695857e-15)
(0.15378308 -7.1150614e-09 8.3726033e-15)
(0.16989843 -1.1829236e-08 3.9134743e-15)
(0.16989849 2.2699917e-09 5.8814415e-15)