/*--------------------------------*- C++ -*----------------------------------*\
| =========                 |                                                 |
| \\      /  F ield         | OpenFOAM: The Open Source CFD Toolbox           |
|  \\    /   O peration     | Version:  3.0.1                                 |
|   \\  /    A nd           | Web:      www.OpenFOAM.org                      |
|    \\/     M anipulation  |                                                 |
\*---------------------------------------------------------------------------*/
FoamFile
{
    version     2.0;
    format      ascii;
    class       volScalarField;
    location    "125";
    object      p;
}
// * * * * * * * * * * * * * * * * * * * * * * * * * * * * * * * * * * * * * //

dimensions      [0 2 -2 0 0 0 0];

internalField   nonuniform List<scalar> 
480
(
5.4963936e-08
5.5610613e-08
-4.6184771e-08
-4.2642591e-08
6.1977188e-08
5.8147857e-08
-4.8574035e-08
-4.9740881e-08
5.1127568e-08
5.380795e-08
-4.552462e-08
-5.0920558e-08
3.6433491e-08
4.5020422e-08
-3.8708867e-08
-4.6217504e-08
2.6532877e-08
3.5590805e-08
-3.0862742e-08
-3.8287197e-08
2.2208989e-08
2.9415602e-08
-2.5088711e-08
-3.119856e-08
2.0575898e-08
2.5557517e-08
-1.9894697e-08
-2.4515324e-08
2.0153654e-08
2.3155429e-08
-1.4630293e-08
-1.7950388e-08
2.0384661e-08
2.1837211e-08
-9.3619624e-09
-1.1666815e-08
2.0968499e-08
2.1316764e-08
-4.2307452e-09
-5.8124119e-09
2.1713878e-08
2.1331855e-08
6.6873431e-10
-4.3701894e-10
2.2508185e-08
2.1691506e-08
5.2886815e-09
4.4756222e-09
2.3293012e-08
2.2254784e-08
9.6227395e-09
8.9815137e-09
2.404848e-08
2.29283e-08
1.3696191e-08
1.3157101e-08
2.4778269e-08
2.3656515e-08
1.7554819e-08
1.7085726e-08
2.549731e-08
2.4409786e-08
2.1254989e-08
2.0848586e-08
2.6222293e-08
2.5173039e-08
2.4853844e-08
2.4518935e-08
2.6965094e-08
2.5936171e-08
2.8403616e-08
2.8158631e-08
2.7728812e-08
2.6687918e-08
3.1948317e-08
3.1816732e-08
2.8506011e-08
2.7411716e-08
3.552157e-08
3.5529818e-08
2.9278738e-08
2.808374e-08
3.9145992e-08
3.9322808e-08
3.0019892e-08
2.8672632e-08
4.2833639e-08
4.3210458e-08
3.069545e-08
2.9140509e-08
4.6587295e-08
4.7199032e-08
3.1267132e-08
2.944479e-08
5.0400122e-08
5.1288237e-08
3.1695186e-08
2.9540488e-08
5.42599e-08
5.5472976e-08
3.194106e-08
2.9382756e-08
5.8149065e-08
5.9744782e-08
3.1969791e-08
2.8928351e-08
6.2045886e-08
6.4092929e-08
3.1752067e-08
2.8138306e-08
6.5925389e-08
6.8505206e-08
3.1265893e-08
2.6979726e-08
6.9760146e-08
7.2968343e-08
3.0497836e-08
2.5427348e-08
7.3520731e-08
7.7468107e-08
2.9443873e-08
2.3464827e-08
7.7176058e-08
8.1989111e-08
2.8109833e-08
2.1085814e-08
8.0693629e-08
8.6514394e-08
2.6511459e-08
1.8294805e-08
8.4039756e-08
9.1024842e-08
2.4674087e-08
1.5107705e-08
8.7179834e-08
9.5498516e-08
2.2631956e-08
1.1552153e-08
9.0078714e-08
9.9909961e-08
2.0427171e-08
7.6675378e-09
9.2701213e-08
1.0422959e-07
1.810834e-08
3.5046972e-09
9.5012799e-08
1.084232e-07
1.5728928e-08
-8.747575e-10
9.6980426e-08
1.1245177e-07
1.3345378e-08
-5.3995271e-09
9.8573514e-08
1.1627151e-07
1.1015087e-08
-9.9901509e-09
9.9765022e-08
1.1983431e-07
8.7943177e-09
-1.4560988e-08
1.0053256e-07
1.2308869e-07
6.736162e-09
-1.9022661e-08
1.0085946e-07
1.2598112e-07
4.888662e-09
-2.3284928e-08
1.0073574e-07
1.284579e-07
3.293192e-09
-2.7259927e-08
1.0015893e-07
1.3046759e-07
1.9831813e-09
-3.086573e-08
9.9134741e-08
1.3196389e-07
9.8321057e-10
-3.4030116e-08
9.767748e-08
1.3290897e-07
3.0846426e-10
-3.6694497e-08
9.5810467e-08
1.3327733e-07
-3.5565125e-11
-3.8817948e-08
9.3566397e-08
1.3306005e-07
-5.3289803e-11
-4.0381286e-08
9.0987893e-08
1.3226936e-07
2.4057772e-10
-4.1391249e-08
8.8128408e-08
1.3094362e-07
8.2013537e-10
-4.1885022e-08
8.5053663e-08
1.291526e-07
1.646549e-09
-4.1934479e-08
8.1843786e-08
1.2700256e-07
2.6649263e-09
-4.1651658e-08
7.859646e-08
1.2464202e-07
3.7993837e-09
-4.1196064e-08
7.5431287e-08
1.2226888e-07
4.9479886e-09
-4.0779399e-08
7.2493522e-08
1.201341e-07
5.9831449e-09
-4.0646731e-08
6.995122e-08
1.1852052e-07
6.750282e-09
-4.1044956e-08
6.7991675e-08
1.1770722e-07
6.9932025e-09
-4.2423881e-08
6.68841e-08
1.1816604e-07
6.1693953e-09
-4.6109835e-08
6.7180656e-08
1.212386e-07
3.7896781e-09
-5.3579013e-08
6.9372303e-08
1.2838571e-07
5.2220006e-08
4.6344787e-08
-4.1154095e-08
-4.2493399e-08
5.0178657e-08
5.21049e-08
-4.2831115e-08
-4.6771408e-08
4.5011564e-08
5.1487793e-08
-4.0991621e-08
-4.5918664e-08
3.6500767e-08
4.5090131e-08
-3.4910736e-08
-3.9230753e-08
2.886904e-08
3.7201826e-08
-2.7991712e-08
-3.0544662e-08
2.5001918e-08
3.1850656e-08
-2.3003467e-08
-2.3563906e-08
2.3094615e-08
2.8297597e-08
-1.8392316e-08
-1.7488535e-08
2.2124391e-08
2.5895503e-08
-1.3565628e-08
-1.1794495e-08
2.1745949e-08
2.4381197e-08
-8.6147804e-09
-6.4504705e-09
2.1736043e-08
2.3560997e-08
-3.7042375e-09
-1.4755772e-09
2.1951687e-08
2.3234717e-08
1.0451088e-09
3.1417287e-09
2.2301326e-08
2.3235032e-08
5.5616145e-09
7.4327061e-09
2.2735316e-08
2.3446804e-08
9.8217975e-09
1.1443442e-08
2.3231542e-08
2.3797724e-08
1.3840673e-08
1.5230357e-08
2.3783708e-08
2.4245919e-08
1.7658331e-08
1.8855257e-08
2.439203e-08
2.4767765e-08
2.1327421e-08
2.238048e-08
2.5056506e-08
2.5347863e-08
2.4904499e-08
2.5864584e-08
2.5772543e-08
2.5972112e-08
2.8442421e-08
2.9359108e-08
2.6528495e-08
2.6622467e-08
3.1985151e-08
3.2906363e-08
2.7304781e-08
2.7274425e-08
3.5565764e-08
3.6538182e-08
2.8074277e-08
2.7896256e-08
3.9205889e-08
4.0276128e-08
2.8803562e-08
2.8449558e-08
4.2916285e-08
4.4132439e-08
2.9454794e-08
2.8890658e-08
4.6698482e-08
4.8111533e-08
2.9987925e-08
2.917243e-08
5.054598e-08
5.2211444e-08
3.0363045e-08
2.9246411e-08
5.4445138e-08
5.6425335e-08
3.0542666e-08
2.9064632e-08
5.8377149e-08
6.0742866e-08
3.0493833e-08
2.8582606e-08
6.2319175e-08
6.5151257e-08
3.0189944e-08
2.7760604e-08
6.6245254e-08
6.963601e-08
2.9612227e-08
2.6565379e-08
7.0126858e-08
7.4181292e-08
2.8750876e-08
2.497164e-08
7.3933364e-08
7.8769996e-08
2.7605809e-08
2.296335e-08
7.763237e-08
8.3383535e-08
2.6187039e-08
2.053473e-08
8.1189925e-08
8.8001417e-08
2.4514665e-08
1.7691062e-08
8.4570771e-08
9.2600667e-08
2.2618473e-08
1.4449263e-08
8.7738651e-08
9.7155179e-08
2.0537151e-08
1.0838209e-08
9.0656734e-08
1.0163507e-07
1.8317141e-08
6.8987763e-09
9.3288206e-08
1.0600615e-07
1.6011131e-08
2.6835503e-09
9.559703e-08
1.1022953e-07
1.3676248e-08
-1.7438421e-09
9.7548885e-08
1.1426149e-07
1.1372004e-08
-6.30982e-09
9.9112246e-08
1.1805375e-07
9.1580726e-09
-1.0932398e-08
1.0025956e-07
1.2155407e-07
7.0920104e-09
-1.5523222e-08
1.0096847e-07
1.2470732e-07
5.2270309e-09
-1.9990087e-08
1.0122294e-07
1.2745708e-07
3.6099612e-09
-2.4239908e-08
1.0101435e-07
1.2974776e-07
2.2794982e-09
-2.8182097e-08
1.0034234e-07
1.3152717e-07
1.2648583e-09
-3.1732277e-08
9.9215491e-08
1.327497e-07
5.8487458e-10
-3.481624e-08
9.7651768e-08
1.3337983e-07
2.4753491e-10
-3.7374077e-08
9.5678858e-08
1.3339617e-07
2.4988066e-10
-3.9364425e-08
9.3334433e-08
1.3279582e-07
5.780862e-10
-4.076876e-08
9.0666538e-08
1.3159907e-07
1.2074732e-09
-4.1595776e-08
8.7734267e-08
1.2985425e-07
2.1021448e-09
-4.1886057e-08
8.4608889e-08
1.2764295e-07
3.2138496e-09
-4.1716409e-08
8.1375606e-08
1.2508476e-07
4.479521e-09
-4.120529e-08
7.8136247e-08
1.2234272e-07
5.8170236e-09
-4.0519857e-08
7.5013132e-08
1.1962978e-07
7.1206788e-09
-3.9880058e-08
7.2152241e-08
1.1721182e-07
8.2619301e-09
-3.9538697e-08
6.9719548e-08
1.1538573e-07
9.0881475e-09
-3.9749092e-08
6.7895807e-08
1.1444341e-07
9.3474483e-09
-4.0970862e-08
6.6942582e-08
1.1487296e-07
8.51299e-09
-4.4535046e-08
6.7387823e-08
1.1801742e-07
6.1126969e-09
-5.1889748e-08
6.9677262e-08
1.253311e-07
)
;

boundaryField
{
    movingWall
    {
        type            zeroGradient;
    }
    CPLReceiveMD
    {
        type            zeroGradient;
    }
    streamwiseIn
    {
        type            cyclic;
    }
    streamwiseOut
    {
        type            cyclic;
    }
    front
    {
        type            cyclic;
    }
    back
    {
        type            cyclic;
    }
    procBoundary0to1
    {
        type            processor;
        value           nonuniform List<scalar> 
240
(
4.195257e-08
4.0238991e-08
-4.9116505e-08
-5.8785304e-08
4.2908676e-08
4.6063441e-08
-5.0441098e-08
-6.3008863e-08
3.9979439e-08
4.577096e-08
-4.6652878e-08
-6.0197968e-08
3.4119746e-08
4.0596664e-08
-3.9166543e-08
-5.1678983e-08
2.8092054e-08
3.3710452e-08
-3.0722544e-08
-4.0879081e-08
2.517749e-08
2.9095233e-08
-2.4547669e-08
-3.1904809e-08
2.3849232e-08
2.6128129e-08
-1.9104794e-08
-2.4113569e-08
2.3236802e-08
2.4173162e-08
-1.3722943e-08
-1.698116e-08
2.3068502e-08
2.3023841e-08
-8.4311068e-09
-1.047552e-08
2.321234e-08
2.2491652e-08
-3.3411266e-09
-4.6025191e-09
2.353527e-08
2.2409865e-08
1.4770977e-09
6.8263857e-10
2.3953321e-08
2.2633019e-08
5.9957822e-09
5.4557816e-09
2.4419934e-08
2.3049254e-08
1.022313e-08
9.808284e-09
2.4915457e-08
2.3581896e-08
1.419403e-08
1.3836168e-08
2.5438104e-08
2.4183808e-08
1.7959837e-08
1.7632427e-08
2.5995103e-08
2.4828626e-08
2.1579345e-08
2.1281907e-08
2.659513e-08
2.5501567e-08
2.5110234e-08
2.4858118e-08
2.7242675e-08
2.6191198e-08
2.8604085e-08
2.842141e-08
2.7934462e-08
2.6884186e-08
3.2103773e-08
3.2018586e-08
2.8657772e-08
2.7561675e-08
3.5641451e-08
3.5683754e-08
2.9390393e-08
2.8197623e-08
3.9238222e-08
3.9439481e-08
3.0101864e-08
2.8758669e-08
4.2904659e-08
4.329841e-08
3.0755549e-08
2.9205186e-08
4.6640599e-08
4.7264982e-08
3.1311168e-08
2.9493209e-08
5.0439958e-08
5.1337463e-08
3.1727455e-08
2.957653e-08
5.4289608e-08
5.550958e-08
3.1964725e-08
2.9409494e-08
5.8171202e-08
5.9771914e-08
3.1987171e-08
2.8948146e-08
6.2062386e-08
6.4112991e-08
3.1764857e-08
2.8152937e-08
6.5937696e-08
6.8520012e-08
3.1275328e-08
2.6990524e-08
6.9769335e-08
7.2979255e-08
3.0504816e-08
2.5435311e-08
7.3527601e-08
7.7476142e-08
2.9449052e-08
2.3470697e-08
7.7181203e-08
8.1995027e-08
2.8113688e-08
2.1090142e-08
8.0697488e-08
8.651875e-08
2.6514338e-08
1.8297997e-08
8.4042655e-08
9.1028051e-08
2.4676244e-08
1.5110062e-08
8.7182017e-08
9.5500883e-08
2.2633576e-08
1.1553895e-08
9.0080359e-08
9.991171e-08
2.0428391e-08
7.668828e-09
9.2702456e-08
1.0423088e-07
1.8109261e-08
3.5056546e-09
9.5013739e-08
1.0842416e-07
1.5729625e-08
-8.7404567e-10
9.6981138e-08
1.1245249e-07
1.3345907e-08
-5.3989966e-09
9.8574053e-08
1.1627204e-07
1.1015489e-08
-9.9897547e-09
9.9765432e-08
1.1983471e-07
8.7946229e-09
-1.4560691e-08
1.0053287e-07
1.2308899e-07
6.7363943e-09
-1.9022439e-08
1.0085969e-07
1.2598134e-07
4.8888389e-09
-2.3284761e-08
1.0073591e-07
1.2845806e-07
3.2933267e-09
-2.7259801e-08
1.0015907e-07
1.3046772e-07
1.9832839e-09
-3.0865635e-08
9.9134845e-08
1.3196399e-07
9.8328877e-10
-3.4030044e-08
9.7677559e-08
1.3290904e-07
3.0852385e-10
-3.6694443e-08
9.5810528e-08
1.3327739e-07
-3.5519756e-11
-3.8817907e-08
9.3566443e-08
1.3306009e-07
-5.3255369e-11
-4.0381255e-08
9.0987927e-08
1.3226939e-07
2.4060379e-10
-4.1391225e-08
8.8128435e-08
1.3094364e-07
8.2015512e-10
-4.1885004e-08
8.5053684e-08
1.2915262e-07
1.646564e-09
-4.1934466e-08
8.1843802e-08
1.2700258e-07
2.6649377e-09
-4.1651648e-08
7.8596471e-08
1.2464203e-07
3.7993922e-09
-4.1196056e-08
7.5431295e-08
1.2226889e-07
4.9479947e-09
-4.0779393e-08
7.2493529e-08
1.201341e-07
5.9831495e-09
-4.0646726e-08
6.9951225e-08
1.1852052e-07
6.7502858e-09
-4.1044952e-08
6.7991678e-08
1.1770723e-07
6.9932055e-09
-4.2423878e-08
6.6884102e-08
1.1816604e-07
6.1693978e-09
-4.6109833e-08
6.7180658e-08
1.212386e-07
3.7896806e-09
-5.357901e-08
6.9372305e-08
1.2838571e-07
)
;
    }
    procBoundary0to1throughfront
    {
        type            processorCyclic;
        value           nonuniform List<scalar> 
240
(
5.0529536e-08
4.841472e-08
4.3097268e-08
3.4480481e-08
2.6859986e-08
2.3121808e-08
2.1437578e-08
2.0727211e-08
2.0608095e-08
2.0834718e-08
2.1250598e-08
2.1763801e-08
2.2328331e-08
2.2926941e-08
2.3558253e-08
2.4226968e-08
2.493697e-08
2.5686936e-08
2.6467893e-08
2.7262405e-08
2.804503e-08
2.8783662e-08
2.9441466e-08
2.9979158e-08
3.0357399e-08
3.053912e-08
3.0491676e-08
3.0188685e-08
2.9611535e-08
2.8750531e-08
2.7605667e-08
2.6187009e-08
2.4514691e-08
2.2618522e-08
2.0537205e-08
1.831719e-08
1.601117e-08
1.3676278e-08
1.1372025e-08
9.158086e-09
7.092018e-09
5.2270342e-09
3.6099616e-09
2.2794968e-09
1.2648558e-09
5.8487152e-10
2.475315e-10
2.4987723e-10
5.7808291e-10
1.20747e-09
2.102142e-09
3.2138471e-09
4.4795188e-09
5.8170215e-09
7.1206767e-09
8.2619284e-09
9.088146e-09
9.3474465e-09
8.5129879e-09
6.112695e-09
4.5461751e-08
5.1111946e-08
5.0413414e-08
4.3998552e-08
3.6134072e-08
3.0842731e-08
2.7380159e-08
2.5086437e-08
2.3701931e-08
2.3010008e-08
2.2800653e-08
2.2902268e-08
2.3198363e-08
2.3617145e-08
2.4118318e-08
2.4680337e-08
2.5290042e-08
2.5935495e-08
2.6600591e-08
2.7262464e-08
2.7890704e-08
2.8447948e-08
2.8891309e-08
2.9174231e-08
2.9248671e-08
2.9066931e-08
2.858471e-08
2.7762409e-08
2.6566855e-08
2.4972801e-08
2.2964234e-08
2.0535384e-08
1.769153e-08
1.4449587e-08
1.0838425e-08
6.8989134e-09
2.6836313e-09
-1.7437999e-09
-6.3098034e-09
-1.0932397e-08
-1.5523231e-08
-1.9990101e-08
-2.4239924e-08
-2.8182114e-08
-3.1732293e-08
-3.4816254e-08
-3.7374089e-08
-3.9364435e-08
-4.0768768e-08
-4.1595783e-08
-4.1886062e-08
-4.1716413e-08
-4.1205294e-08
-4.0519859e-08
-3.988006e-08
-3.9538699e-08
-3.9749093e-08
-4.0970863e-08
-4.4535047e-08
-5.1889749e-08
-4.3601373e-08
-4.543885e-08
-4.3657501e-08
-3.7459093e-08
-3.030507e-08
-2.5010402e-08
-2.0069828e-08
-1.4925135e-08
-9.6955309e-09
-4.5510017e-09
3.9040963e-10
5.0616899e-09
9.4446303e-09
1.3559425e-08
1.7450956e-08
2.1176183e-08
2.4795396e-08
2.8364564e-08
3.1930195e-08
3.5527387e-08
3.9179351e-08
4.2898091e-08
4.6686426e-08
5.0538181e-08
5.4440228e-08
5.837416e-08
6.2317435e-08
6.6244306e-08
7.0126395e-08
7.3933188e-08
7.7632352e-08
8.1189985e-08
8.4570863e-08
8.7738747e-08
9.0656821e-08
9.3288279e-08
9.5597087e-08
9.7548928e-08
9.9112277e-08
1.0025958e-07
1.0096848e-07
1.0122295e-07
1.0101435e-07
1.0034234e-07
9.9215491e-08
9.7651766e-08
9.5678855e-08
9.3334431e-08
9.0666535e-08
8.7734265e-08
8.4608887e-08
8.1375604e-08
7.8136246e-08
7.5013132e-08
7.2152241e-08
6.9719548e-08
6.7895807e-08
6.6942582e-08
6.7387824e-08
6.9677263e-08
-4.2873257e-08
-4.7266422e-08
-4.6561109e-08
-3.9992846e-08
-3.1367892e-08
-2.4385753e-08
-1.8258635e-08
-1.2479735e-08
-7.0343886e-09
-1.9546222e-09
2.7622224e-09
7.1420671e-09
1.1228342e-08
1.5076808e-08
1.8749975e-08
2.2311699e-08
2.5822426e-08
2.9335637e-08
3.2895459e-08
3.6535291e-08
4.0277984e-08
4.41368e-08
4.8116935e-08
5.2216977e-08
5.6430477e-08
6.074736e-08
6.5155015e-08
6.9639046e-08
7.4183675e-08
7.877182e-08
8.3384898e-08
8.8002413e-08
9.2601379e-08
9.7155675e-08
1.0163541e-07
1.0600637e-07
1.1022966e-07
1.1426157e-07
1.1805379e-07
1.2155409e-07
1.2470732e-07
1.2745707e-07
1.2974775e-07
1.3152716e-07
1.3274969e-07
1.3337982e-07
1.3339616e-07
1.3279581e-07
1.3159906e-07
1.2985424e-07
1.2764294e-07
1.2508476e-07
1.2234271e-07
1.1962978e-07
1.1721182e-07
1.1538572e-07
1.144434e-07
1.1487295e-07
1.1801742e-07
1.253311e-07
)
;
    }
}


// ************************************************************************* //
