/*--------------------------------*- C++ -*----------------------------------*\
| =========                 |                                                 |
| \\      /  F ield         | OpenFOAM: The Open Source CFD Toolbox           |
|  \\    /   O peration     | Version:  3.0.1                                 |
|   \\  /    A nd           | Web:      www.OpenFOAM.org                      |
|    \\/     M anipulation  |                                                 |
\*---------------------------------------------------------------------------*/
FoamFile
{
    version     2.0;
    format      ascii;
    class       surfaceScalarField;
    location    "300";
    object      phi;
}
// * * * * * * * * * * * * * * * * * * * * * * * * * * * * * * * * * * * * * //

dimensions      [0 3 -1 0 0 0 0];

internalField   nonuniform List<scalar> 
1072
(
0.025044672
-1.169718e-07
-6.6646493e-10
0.025044778
-9.0119485e-08
2.0471731e-09
0.025044669
1.2359039e-07
1.5722378e-09
1.0241605e-07
4.9415355e-09
-0.088559082
-2.6456861e-07
-1.0624276e-08
-0.088558912
-2.5333584e-07
1.6110369e-09
-0.088559086
2.9642231e-07
4.2075185e-10
2.7895551e-07
4.3126766e-09
-0.11126318
-3.6433164e-07
-1.197865e-08
-0.11126306
-3.7510108e-07
5.4782415e-10
-0.11126318
4.2100951e-07
-5.0935659e-10
4.1758241e-07
2.5808365e-09
-0.10343857
-2.8470279e-07
-1.1744006e-08
-0.10343862
-3.1985102e-07
-4.2128439e-10
-0.10343857
3.652408e-07
-1.0743776e-09
3.8053205e-07
1.3494085e-09
-0.081905476
-3.748921e-08
-1.0199033e-08
-0.081905695
-8.8858541e-08
-7.386969e-10
-0.081905474
1.3863365e-07
-1.3647671e-09
1.6692335e-07
8.2148893e-10
-0.056895254
2.8056717e-07
-8.1750488e-09
-0.056895563
2.28884e-07
-7.9453075e-10
-0.056895262
-1.6356421e-07
-1.331695e-09
-1.3547562e-07
5.9747729e-10
-0.033707435
5.8078112e-07
-6.3244817e-09
-0.033707744
5.4307557e-07
-7.2248725e-10
-0.033707452
-4.5275202e-07
-1.1417662e-09
-4.3709414e-07
5.4787074e-10
-0.013525571
8.0786014e-07
-4.8583118e-09
-0.013525817
7.9304386e-07
-5.8837487e-10
-0.013525594
-6.7299617e-07
-9.1597136e-10
-6.7749008e-07
5.5414244e-10
0.0044633082
9.4879506e-07
-3.5097087e-09
0.0044631422
9.5993372e-07
-4.3392573e-10
0.0044632838
-8.106592e-07
-7.0244147e-10
-8.3774287e-07
5.7376694e-10
0.021514121
1.0183993e-06
-2.6959679e-09
0.021514026
1.0543444e-06
-2.7784589e-10
0.021514098
-8.7935073e-07
-5.2207826e-10
-9.2815633e-07
5.912881e-10
0.038695009
1.0385441e-06
-2.0602673e-09
0.038694965
1.0972275e-06
-1.3081392e-10
0.038694988
-9.0047718e-07
-3.895668e-10
-9.692854e-07
6.0008731e-10
0.056794321
1.0279294e-06
-1.485495e-09
0.056794308
1.107852e-06
-2.5440289e-12
0.056794302
-8.9224626e-07
-3.2531073e-10
-9.7995439e-07
5.9760389e-10
0.076400851
9.9942321e-07
-1.023471e-09
0.076400856
1.1000872e-06
1.0141562e-10
0.076400832
-8.6715227e-07
-2.1901916e-10
-9.7360212e-07
5.8317949e-10
0.097989258
9.6139089e-07
-7.166765e-10
0.097989272
1.0830964e-06
1.803093e-10
0.097989238
-8.3309873e-07
-1.3620062e-10
-9.590055e-07
5.5446608e-10
0.12196981
9.1932983e-07
-5.6324616e-10
0.12196983
1.0630246e-06
2.3869734e-10
0.12196979
-7.9528127e-07
-7.2395107e-11
-9.4203785e-07
5.2370552e-10
0.14871007
8.7686961e-07
-3.8451171e-10
0.14871009
1.0442182e-06
2.7984387e-10
0.14871005
-7.5733128e-07
-2.4317474e-11
-9.2686318e-07
4.8979411e-10
0.1785438
8.3659991e-07
-2.489804e-10
0.17854381
1.0297798e-06
3.0630059e-10
0.17854377
-7.2177059e-07
1.0584137e-11
-9.1646186e-07
4.5337975e-10
0.21177695
8.000613e-07
-1.4771781e-10
0.21177696
1.0217075e-06
3.208222e-10
0.21177693
-6.9010865e-07
3.4371123e-11
-9.1278347e-07
4.2880587e-10
0.24869472
7.6779136e-07
-7.3976311e-11
0.24869472
1.0209194e-06
3.2599148e-10
0.24869469
-6.6286627e-07
4.8788382e-11
-9.1659096e-07
3.5043473e-10
0.28956979
7.3942256e-07
-2.2403208e-11
0.28956978
1.0273236e-06
3.2317242e-10
0.28956975
-6.3967318e-07
5.5171723e-11
-9.2783439e-07
3.1081741e-10
0.33467072
7.1387561e-07
1.1144819e-11
0.3346707
1.0399634e-06
3.171514e-10
0.33467068
-6.1944546e-07
5.5016253e-11
-9.4554356e-07
2.7844287e-10
0.38426934
6.8960128e-07
3.0101757e-11
0.38426932
1.0572386e-06
3.0925652e-10
0.3842693
-6.0062195e-07
4.9818161e-11
-9.6809409e-07
2.487992e-10
0.43864621
6.6482795e-07
3.7416206e-11
0.43864619
1.0771393e-06
3.0018585e-10
0.43864616
-5.8141053e-07
4.0817439e-11
-9.9344567e-07
2.2173121e-10
0.49809393
6.3777994e-07
3.5674238e-11
0.49809391
1.0974587e-06
2.9047251e-10
0.49809388
-5.6000681e-07
2.9030203e-11
-1.0193555e-06
1.9756191e-10
0.56291844
6.0684695e-07
2.7156871e-11
0.56291842
1.1159643e-06
2.8052405e-10
0.56291839
-5.3476498e-07
1.5387829e-11
-1.0435491e-06
1.7643223e-10
0.63343848
5.7070024e-07
1.3873093e-11
0.63343846
1.1305167e-06
2.7217621e-10
0.63343843
-5.0431554e-07
7.4372943e-13
-1.0638424e-06
1.5823558e-10
0.7099837
5.2836059e-07
-2.4373405e-12
0.70998369
1.1391556e-06
2.582528e-10
0.70998365
-4.6763506e-07
-1.4128796e-11
-1.0782173e-06
1.4267181e-10
0.79289178
4.7922789e-07
-2.0320797e-11
0.79289178
1.1401153e-06
2.4835224e-10
0.79289173
-4.2407844e-07
-2.8560648e-11
-1.0848613e-06
1.2934189e-10
0.88250479
4.2308491e-07
-3.8569067e-11
0.8825048
1.1318553e-06
2.394579e-10
0.88250474
-3.7338375e-07
-4.1964816e-11
-1.082183e-06
1.1781781e-10
0.97916523
3.6008397e-07
-5.6217572e-11
0.97916524
1.113057e-06
2.3081518e-10
0.97916518
-3.1566018e-07
-5.3853722e-11
-1.0688129e-06
1.0769566e-10
1.0832117
2.9072395e-07
-7.2536482e-11
1.0832117
1.0826177e-06
2.2223198e-10
1.0832117
-2.5136628e-07
-6.3849809e-11
-1.0436005e-06
9.8625915e-11
1.1949745
2.1582215e-07
-8.7011902e-11
1.1949746
1.039647e-06
2.1361297e-10
1.1949745
-1.812828e-07
-7.1688277e-11
-1.005612e-06
9.0334329e-11
1.3147713
1.3648301e-07
-9.9322383e-11
1.3147713
9.8346861e-07
2.048876e-10
1.3147713
-1.0648228e-07
-7.7213561e-11
-9.5413365e-07
8.2635543e-11
1.4429024
5.4064309e-08
-1.0931133e-10
1.4429025
9.1362858e-07
1.9649929e-10
1.4429024
-2.8295785e-08
-8.0371329e-11
-8.8868084e-07
7.5437805e-11
1.5796467
-2.986007e-08
-1.1695798e-10
1.5796467
8.2991393e-07
1.8727316e-10
1.5796467
5.1723902e-08
-8.1197097e-11
-8.0901509e-07
6.8711324e-11
1.7252569
-1.1354196e-07
-1.2235324e-10
1.725257
7.3237201e-07
1.7759146e-10
1.7252569
1.3184376e-07
-7.9809469e-11
-7.1516626e-07
6.2479372e-11
1.879956
-1.9510654e-07
-1.2567084e-10
1.8799561
6.2133868e-07
1.6758035e-10
1.879956
2.10198e-07
-7.6394902e-11
-6.0745976e-07
5.6804667e-11
2.0439323
-2.7260688e-07
-1.2714024e-10
2.0439325
4.9746872e-07
1.5718241e-10
2.0439324
2.8484272e-07
-7.1192256e-11
-4.8654655e-07
5.177493e-11
2.2173366
-3.4408599e-07
-1.2702388e-10
2.2173368
3.617674e-07
1.4636108e-10
2.2173367
3.538181e-07
-6.4479781e-11
-3.5343435e-07
4.7488441e-11
2.4002778
-4.0764651e-07
-1.2559795e-10
2.4002779
2.1562181e-07
1.3509776e-10
2.4002779
4.1521854e-07
-5.65614e-11
-2.0951838e-07
4.4041291e-11
2.5928198
-4.6152735e-07
-1.2313652e-10
2.59282
6.0830088e-08
1.2339015e-10
2.5928199
4.6726968e-07
-4.775429e-11
-5.6609947e-08
4.1517176e-11
2.7949787
-5.0418574e-07
-1.1989949e-10
2.7949789
-1.0037255e-07
1.112516e-10
2.7949788
5.084111e-07
-3.837738e-11
1.0303828e-07
3.9978854e-11
3.0067201
-5.3438234e-07
-1.1618341e-10
3.0067202
-2.6529234e-07
9.8709834e-11
3.0067202
5.3738216e-07
-2.8741085e-11
2.6671137e-07
3.9542986e-11
3.2279566
-5.5126666e-07
-1.1208526e-10
3.2279568
-4.3076108e-07
8.5806081e-11
3.2279568
5.5330763e-07
-1.9138213e-11
4.3121723e-07
4.0047174e-11
3.4585467
-5.5445672e-07
-1.0786312e-10
3.4585468
-5.9312682e-07
7.2595047e-11
3.4585468
5.5577841e-07
-9.8380472e-12
5.9287758e-07
4.1549352e-11
3.6982928
-5.441088e-07
-1.0365316e-10
3.698293
-7.4825319e-07
5.9143836e-11
3.698293
5.4492154e-07
-1.0757816e-12
7.4752778e-07
4.3992546e-11
3.9469413
-5.209687e-07
-9.9589326e-11
3.9469415
-8.9153034e-07
4.5530044e-11
3.9469415
5.2145189e-07
6.9290319e-12
8.9052804e-07
4.7280857e-11
4.2041819
-4.8639559e-07
-9.5780195e-11
4.204182
-1.0179035e-06
3.18405e-11
4.2041821
4.8669617e-07
1.406859e-11
1.0167921e-06
5.1281913e-11
4.4696482
-4.4234721e-07
-9.2315469e-11
4.4696483
-1.1219299e-06
1.8170343e-11
4.4696483
4.4257848e-07
2.0200285e-11
1.1208444e-06
5.5828648e-11
4.7429188
-3.9131363e-07
-8.9270565e-11
4.7429189
-1.1978822e-06
4.6204251e-12
4.742919
3.9155425e-07
2.5252474e-11
1.1969231e-06
6.072466e-11
5.0235191
-3.361858e-07
-8.6711062e-11
5.0235192
-1.2399274e-06
-8.7023429e-12
5.0235192
3.3647946e-07
2.9194626e-11
1.23916e-06
6.5755958e-11
5.3109232
-2.8004711e-07
-8.4694055e-11
5.3109232
-1.2424249e-06
-2.1685503e-11
5.3109233
2.8040336e-07
3.2034682e-11
1.241879e-06
7.071544e-11
5.6045569
-2.25883e-07
-8.326772e-11
5.6045568
-1.2004067e-06
-3.4207873e-11
5.6045569
2.262802e-07
3.381693e-11
1.2000784e-06
7.5445666e-11
5.903801
-1.7621905e-07
-8.2466107e-11
5.9038009
-1.110326e-06
-4.6134336e-11
5.903801
1.7661103e-07
3.462445e-11
1.1101827e-06
7.9909282e-11
6.2079955
-1.3272912e-07
-8.2298234e-11
6.2079953
-9.7120232e-07
-5.731092e-11
6.2079954
1.3305687e-07
3.4597238e-11
9.711923e-07
8.4299567e-11
6.5164435
-9.5905543e-08
-8.2710929e-11
6.5164433
-7.8634933e-07
-6.7548853e-11
6.5164434
9.6115322e-08
3.4000541e-11
7.8641798e-07
8.9178759e-11
6.8284166
-6.4960442e-08
-8.3526042e-11
6.8284163
-5.6592606e-07
-7.6483238e-11
6.8284164
6.5028448e-08
3.3397399e-11
5.6603854e-07
9.5556243e-11
7.1431594
-3.8224936e-08
-8.4642654e-11
7.1431592
-3.3051226e-07
-8.3409937e-11
7.1431592
3.8187219e-08
3.400738e-11
3.306812e-07
1.0499625e-10
7.459896
-1.4727567e-08
-8.7092965e-11
7.4598958
-1.1711492e-07
-8.6517001e-11
7.4598958
1.4714209e-08
3.7366594e-11
1.1739135e-07
1.214579e-10
7.7778349
-8.1239356e-11
7.7778348
-7.8645547e-11
7.7778348
3.9896304e-11
1.2991078e-10
0.025044689
-1.0189284e-07
0.025044796
-8.6270228e-08
0.02504469
1.1392125e-07
9.7149384e-08
-0.088559014
-2.4827597e-07
-0.088558857
-2.5124006e-07
-0.08855901
2.7836886e-07
2.6540123e-07
-0.11126311
-3.54841e-07
-0.11126299
-3.78693e-07
-0.11126311
4.0165326e-07
3.9993325e-07
-0.10343849
-2.7457587e-07
-0.10343855
-3.2128888e-07
-0.10343848
3.3776355e-07
3.5246593e-07
-0.081905417
-3.0479197e-08
-0.081905644
-8.9545015e-08
-0.081905411
1.0817076e-07
1.3235276e-07
-0.056895229
2.832599e-07
-0.056895542
2.2737598e-07
-0.056895233
-1.9365251e-07
-1.7296472e-07
-0.033707438
5.7887124e-07
-0.033707747
5.3957166e-07
-0.033707453
-4.801606e-07
-4.7451627e-07
-0.013525591
8.0170458e-07
-0.013525837
7.8687859e-07
-0.013525612
-6.9661682e-07
-7.1271826e-07
0.004463281
9.3974123e-07
0.0044631171
9.5127396e-07
0.0044632594
-8.3057681e-07
-8.6976826e-07
0.021514094
1.0073202e-06
0.021514001
1.043934e-06
0.021514074
-8.9627595e-07
-9.568158e-07
0.038694986
1.0264183e-06
0.038694943
1.0859471e-06
0.038694968
-9.1517769e-07
-9.9478415e-07
0.056794302
1.0156292e-06
0.05679429
1.0964336e-06
0.056794284
-9.0534254e-07
-1.0025701e-06
0.076400834
9.8757769e-07
0.07640084
1.0890361e-06
0.076400816
-8.7893771e-07
-9.9359135e-07
0.097989242
9.5025728e-07
0.097989257
1.0727142e-06
0.097989224
-8.4373995e-07
-9.7663001e-07
0.12196979
9.0889226e-07
0.12196981
1.053478e-06
0.12196977
-8.0487659e-07
-9.5753187e-07
0.14871006
8.6724893e-07
0.14871007
1.0355985e-06
0.14871004
-7.6594941e-07
-9.4045383e-07
0.17854378
8.2786622e-07
0.1785438
1.0221272e-06
0.17854376
-7.2946839e-07
-9.2837091e-07
0.21177694
7.9224362e-07
0.21177695
1.0150248e-06
0.21177691
-6.9693817e-07
-9.2318339e-07
0.24869471
7.608793e-07
0.24869471
1.0151805e-06
0.24869468
-6.6888e-07
-9.2580084e-07
0.28956977
7.3337795e-07
0.28956976
1.0224752e-06
0.28956974
-6.4491917e-07
-9.3600751e-07
0.3346707
7.0863715e-07
0.33467069
1.035943e-06
0.33467067
-6.2396902e-07
-9.5279825e-07
0.38426933
6.8508932e-07
0.38426931
1.0539765e-06
0.38426929
-6.0446771e-07
-9.7452656e-07
0.43864619
6.6095046e-07
0.43864617
1.074561e-06
0.43864615
-5.8462409e-07
-9.9913313e-07
0.49809391
6.3443862e-07
0.49809389
1.0954867e-06
0.49809387
-5.6263576e-07
-1.0243587e-06
0.56291842
6.0394292e-07
0.5629184
1.1145204e-06
0.56291837
-5.3685931e-07
-1.0479156e-06
0.63343846
5.6813864e-07
0.63343844
1.1295263e-06
0.63343841
-5.0592737e-07
-1.0676095e-06
0.70998369
5.2605391e-07
0.70998368
1.1385307e-06
0.70998364
-4.6881803e-07
-1.0814152e-06
0.79289176
4.7709914e-07
0.79289176
1.1397832e-06
0.79289171
-4.2488601e-07
-1.0875154e-06
0.88250477
4.2106906e-07
0.88250478
1.1317466e-06
0.88250473
-3.7386824e-07
-1.0843159e-06
0.97916521
3.5812854e-07
0.97916522
1.1131048e-06
0.97916516
-3.1587199e-07
-1.0704456e-06
1.0832117
2.8878899e-07
1.0832117
1.0827579e-06
1.0832116
-2.5135338e-07
-1.044753e-06
1.1949745
2.1387969e-07
1.1949745
1.0398189e-06
1.1949745
-1.8109044e-07
-1.0063038e-06
1.3147713
1.3451617e-07
1.3147713
9.836152e-07
1.3147713
-1.0615294e-07
-9.5438345e-07
1.4429024
5.2066175e-08
1.4429025
9.1369869e-07
1.4429024
-2.7869308e-08
-8.8850673e-07
1.5796466
-3.1887813e-08
1.5796467
8.2985929e-07
1.5796466
5.2210031e-08
-8.0843427e-07
1.7252569
-1.155903e-07
1.725257
7.3214932e-07
1.7252569
1.3235418e-07
-7.1419509e-07
1.879956
-1.9716046e-07
1.8799561
6.2091018e-07
1.879956
2.1069932e-07
-6.0611387e-07
2.0439323
-2.7464654e-07
2.0439325
4.9680239e-07
2.0439324
2.853034e-07
-4.8484115e-07
2.2173366
-3.4608796e-07
2.2173368
3.6083715e-07
2.2173367
3.5420851e-07
-3.5138469e-07
2.4002778
-4.0958485e-07
2.4002779
2.1440766e-07
2.4002779
4.155111e-07
-2.071404e-07
2.5928198
-4.6337464e-07
2.59282
5.9318389e-08
2.5928199
4.6743916e-07
-5.3921047e-08
2.7949787
-5.0591411e-07
2.7949789
-1.0218889e-07
2.7949788
5.0843506e-07
1.0601834e-07
3.0067201
-5.3596475e-07
3.0067202
-2.6741364e-07
3.0067202
5.3724146e-07
2.6995974e-07
3.2279566
-5.5267732e-07
3.2279568
-4.3318051e-07
3.2279568
5.5298702e-07
4.3470647e-07
3.4585467
-5.5567259e-07
3.4585468
-5.9583008e-07
3.4585468
5.5526723e-07
5.9657482e-07
3.6982928
-5.4511063e-07
3.698293
-7.5121804e-07
3.698293
5.4421442e-07
7.5139358e-07
3.9469413
-5.2174234e-07
3.9469415
-8.9472603e-07
3.9469415
5.2054942e-07
8.9451529e-07
4.2041819
-4.8693334e-07
4.204182
-1.0212901e-06
4.2041821
4.8560587e-07
1.0208449e-06
4.4696482
-4.4264931e-07
4.4696483
-1.1254573e-06
4.4696484
4.4131541e-07
1.1248969e-06
4.7429189
-3.9138972e-07
4.7429189
-1.2014892e-06
4.742919
3.9014177e-07
1.2008986e-06
5.0235191
-3.3605635e-07
5.0235192
-1.2435401e-06
5.0235192
3.3494977e-07
1.24297e-06
5.3109232
-2.797445e-07
5.3109232
-1.2459559e-06
5.3109233
2.7879794e-07
1.2454237e-06
5.6045569
-2.2545175e-07
5.6045568
-1.2037537e-06
5.6045569
2.2464983e-07
1.2032477e-06
5.903801
-1.7571462e-07
5.9038009
-1.1133733e-06
5.903801
1.7501519e-07
1.1128607e-06
6.2079955
-1.3221422e-07
6.2079954
-9.7382648e-07
6.2079954
1.3156245e-07
9.7326721e-07
6.5164435
-9.544252e-08
6.5164434
-7.8843518e-07
6.5164434
9.4794933e-08
7.8780161e-07
6.8284166
-6.4598846e-08
6.8284164
-5.6740268e-07
6.8284164
6.395989e-08
5.6670359e-07
7.1431595
-3.7984404e-08
7.1431592
-3.314322e-07
7.1431593
3.7458371e-08
3.307311e-07
7.459896
-1.4601233e-08
7.4598958
-1.1764512e-07
7.4598958
1.4415664e-08
1.1709989e-07
7.7778349
7.7778348
7.7778348
)
;

boundaryField
{
    movingWall
    {
        type            calculated;
        value           uniform 0;
    }
    CPLReceiveMD
    {
        type            calculated;
        value           uniform 0;
    }
    streamwiseIn
    {
        type            cyclic;
        value           nonuniform List<scalar> 
120
(
-0.025044572
0.088559248
0.11126331
0.10343852
0.081905252
0.056894952
0.033707144
0.013525348
-0.0044634486
-0.021514191
-0.038695031
-0.056794313
-0.076400825
-0.097989223
-0.12196977
-0.14871003
-0.17854376
-0.21177692
-0.24869469
-0.28956976
-0.33467069
-0.38426932
-0.43864619
-0.4980939
-0.56291841
-0.63343844
-0.70998366
-0.79289173
-0.88250474
-0.97916516
-1.0832116
-1.1949744
-1.3147712
-1.4429023
-1.5796466
-1.7252568
-1.8799559
-2.0439323
-2.2173366
-2.4002777
-2.5928198
-2.7949787
-3.0067201
-3.2279566
-3.4585467
-3.6982928
-3.9469414
-4.2041819
-4.4696482
-4.7429189
-5.0235192
-5.3109233
-5.6045569
-5.903801
-6.2079955
-6.5164436
-6.8284166
-7.1431595
-7.459896
-7.7778349
-0.025044588
0.088559165
0.11126323
0.10343843
0.081905192
0.05689493
0.033707153
0.013525375
-0.0044634158
-0.021514161
-0.038695006
-0.056794292
-0.076400807
-0.097989207
-0.12196976
-0.14871002
-0.17854375
-0.21177691
-0.24869468
-0.28956975
-0.33467068
-0.38426931
-0.43864617
-0.49809389
-0.5629184
-0.63343843
-0.70998365
-0.79289172
-0.88250472
-0.97916515
-1.0832116
-1.1949744
-1.3147712
-1.4429023
-1.5796466
-1.7252568
-1.8799559
-2.0439323
-2.2173366
-2.4002777
-2.5928197
-2.7949787
-3.00672
-3.2279566
-3.4585467
-3.6982929
-3.9469414
-4.204182
-4.4696482
-4.7429189
-5.0235192
-5.3109233
-5.6045569
-5.9038011
-6.2079955
-6.5164436
-6.8284166
-7.1431595
-7.4598961
-7.7778349
)
;
    }
    streamwiseOut
    {
        type            cyclic;
        value           nonuniform List<scalar> 
120
(
0.025044572
-0.088559248
-0.11126331
-0.10343852
-0.081905252
-0.056894952
-0.033707144
-0.013525348
0.0044634486
0.021514191
0.038695031
0.056794313
0.076400825
0.097989223
0.12196977
0.14871003
0.17854376
0.21177692
0.24869469
0.28956976
0.33467069
0.38426932
0.43864619
0.4980939
0.56291841
0.63343844
0.70998366
0.79289173
0.88250474
0.97916516
1.0832116
1.1949744
1.3147712
1.4429023
1.5796466
1.7252568
1.8799559
2.0439323
2.2173366
2.4002777
2.5928198
2.7949787
3.0067201
3.2279566
3.4585467
3.6982928
3.9469414
4.2041819
4.4696482
4.7429189
5.0235192
5.3109233
5.6045569
5.903801
6.2079955
6.5164436
6.8284166
7.1431595
7.459896
7.7778349
0.025044588
-0.088559165
-0.11126323
-0.10343843
-0.081905192
-0.05689493
-0.033707153
-0.013525375
0.0044634158
0.021514161
0.038695006
0.056794292
0.076400807
0.097989207
0.12196976
0.14871002
0.17854375
0.21177691
0.24869468
0.28956975
0.33467068
0.38426931
0.43864617
0.49809389
0.5629184
0.63343843
0.70998365
0.79289172
0.88250472
0.97916515
1.0832116
1.1949744
1.3147712
1.4429023
1.5796466
1.7252568
1.8799559
2.0439323
2.2173366
2.4002777
2.5928197
2.7949787
3.00672
3.2279566
3.4585467
3.6982929
3.9469414
4.204182
4.4696482
4.7429189
5.0235192
5.3109233
5.6045569
5.9038011
6.2079955
6.5164436
6.8284166
7.1431595
7.4598961
7.7778349
)
;
    }
    front
    {
        type            cyclic;
        value           nonuniform 0();
    }
    back
    {
        type            cyclic;
        value           nonuniform 0();
    }
    procBoundary1to0
    {
        type            processor;
        value           nonuniform List<scalar> 
240
(
-2.2388131e-10
2.376026e-09
2.3771843e-09
5.1021619e-09
-1.0040136e-08
1.9603191e-09
1.1706406e-09
4.4940598e-09
-1.1217304e-08
8.7613927e-10
1.065782e-10
2.7811287e-09
-1.0900646e-08
-6.0316262e-11
-2.7743539e-10
1.6768091e-09
-9.3530515e-09
-3.8588418e-10
-5.8018055e-10
1.1536824e-09
-7.4107526e-09
-4.7144164e-10
-6.3614381e-10
9.0945836e-10
-5.6222844e-09
-4.397305e-10
-5.5619737e-10
8.2422845e-10
-4.194031e-09
-3.5016486e-10
-4.4443929e-10
7.8816114e-10
-3.1342375e-09
-2.3890839e-10
-3.4504978e-10
7.6508505e-10
-2.4770341e-09
-1.2301473e-10
-2.850954e-10
7.4314318e-10
-1.8118913e-09
-1.1449697e-11
-2.2068233e-10
7.1758192e-10
-1.2907774e-09
8.7184861e-11
-1.4088e-10
6.8664147e-10
-8.7861775e-10
1.6765761e-10
-7.9264254e-11
6.4972702e-10
-6.402477e-10
2.285665e-10
-3.2201045e-11
6.0292455e-10
-4.8564844e-10
2.7341927e-10
3.3860003e-12
5.5858152e-10
-3.2973438e-10
3.0486268e-10
2.9571657e-11
5.1475455e-10
-2.1161938e-10
3.2453883e-10
4.7803434e-11
4.7138269e-10
-1.2334626e-10
3.3442423e-10
5.9145323e-11
4.4356094e-10
-5.9079416e-11
3.3648335e-10
6.445722e-11
3.5816664e-10
-1.4217815e-11
3.315192e-10
6.4325825e-11
3.165619e-10
1.4705975e-11
3.2409745e-10
5.962195e-11
2.8382066e-10
3.0593114e-11
3.1522007e-10
5.1358662e-11
2.5436335e-10
3.5984618e-11
3.0543857e-10
4.0381575e-11
2.2752944e-10
3.3126603e-11
2.9517622e-10
2.7400405e-11
2.0345862e-10
2.4065912e-11
2.8477261e-10
1.3116272e-11
1.8224466e-10
1.0623665e-11
2.7451783e-10
-1.7912816e-12
1.6378959e-10
-5.599616e-12
2.6236085e-10
-1.6679631e-11
1.4783057e-10
-2.3244325e-11
2.5224677e-10
-3.0970713e-11
1.3401112e-10
-4.1170015e-11
2.430393e-10
-4.4142938e-11
1.2194393e-10
-5.8459406e-11
2.3398064e-10
-5.57546e-11
1.1125949e-10
-7.441503e-11
2.2493891e-10
-6.5459769e-11
1.0163723e-10
-8.8544122e-11
2.1585545e-10
-7.3014672e-11
9.2823237e-11
-1.0053814e-10
2.0666606e-10
-7.8277089e-11
8.4646774e-11
-1.1024769e-10
1.9765265e-10
-8.120045e-11
7.7024924e-11
-1.1765498e-10
1.879359e-10
-8.182397e-11
6.9931447e-11
-1.2285048e-10
1.7807197e-10
-8.0266528e-11
6.3389653e-11
-1.2600563e-10
1.6791401e-10
-7.67132e-11
5.7459862e-11
-1.2734655e-10
1.5740026e-10
-7.1400256e-11
5.2225513e-11
-1.2713173e-10
1.4648995e-10
-6.4602739e-11
4.7779416e-11
-1.2563305e-10
1.3516026e-10
-5.6621038e-11
4.4211642e-11
-1.2312042e-10
1.2340521e-10
-4.7768806e-11
4.1599621e-11
-1.198497e-10
1.1123455e-10
-3.8361532e-11
4.0000296e-11
-1.1615669e-10
9.8672692e-11
-2.8706527e-11
3.9482672e-11
-1.1203264e-10
8.5758124e-11
-1.9093938e-11
3.9978948e-11
-1.0779765e-10
7.254306e-11
-9.7904897e-12
4.1480101e-11
-1.035842e-10
5.9092614e-11
-1.0294629e-12
4.3926911e-11
-9.9523282e-11
4.5482699e-11
6.9717714e-12
4.7221831e-11
-9.5721138e-11
3.1798828e-11
1.4105635e-11
5.1231109e-11
-9.2265613e-11
1.813523e-11
2.0230201e-11
5.5786653e-11
-8.9230642e-11
4.5920956e-12
2.5274685e-11
6.0691365e-11
-8.6680774e-11
-8.7242384e-12
2.9209245e-11
6.5730864e-11
-8.4672505e-11
-2.1701627e-11
3.2042349e-11
7.0698317e-11
-8.3253815e-11
-3.4219069e-11
3.3818661e-11
7.5436562e-11
-8.2458288e-11
-4.6141466e-11
3.4621331e-11
7.9906503e-11
-8.2295061e-11
-5.7314147e-11
3.4590719e-11
8.4301386e-11
-8.2710447e-11
-6.7549322e-11
3.3992366e-11
8.9183273e-11
-8.3526271e-11
-7.6483026e-11
3.3389778e-11
9.5561216e-11
-8.4642204e-11
-8.341068e-11
3.4002173e-11
1.0499973e-10
-8.7092181e-11
-8.6519255e-11
3.7364378e-11
1.2145961e-10
-8.1239764e-11
-7.8647243e-11
3.9895786e-11
1.2991212e-10
)
;
    }
    procBoundary1to0throughback
    {
        type            processorCyclic;
        value           nonuniform List<scalar> 
240
(
1.6857266e-09
-4.4564657e-09
-7.3287024e-09
-9.227816e-09
-8.6188457e-09
-7.0674416e-09
-5.5800213e-09
-4.4766251e-09
-3.5691826e-09
-2.7744304e-09
-2.1354907e-09
-1.6419467e-09
-1.2682686e-09
-9.8892264e-10
-7.8076646e-10
-6.2260718e-10
-5.0262986e-10
-4.1124051e-10
-3.4087647e-10
-2.8518352e-10
-2.3930651e-10
-1.9960772e-10
-1.6361171e-10
-1.2987943e-10
-9.7673755e-11
-6.6799486e-11
-3.7372668e-11
-9.6646241e-12
1.5968907e-11
3.9187696e-11
5.9719098e-11
7.738712e-11
9.2120636e-11
1.0394937e-10
1.129922e-10
1.1944404e-10
1.2355772e-10
1.256233e-10
1.2594993e-10
1.2484992e-10
1.2262534e-10
1.1955852e-10
1.1600368e-10
1.1197069e-10
1.0779207e-10
1.0361032e-10
9.9564115e-11
9.5765416e-11
9.2306441e-11
8.9264286e-11
8.6705637e-11
8.4688531e-11
8.3261629e-11
8.2459482e-11
8.2291088e-11
8.270373e-11
8.351919e-11
8.4636912e-11
8.7089243e-11
8.1237758e-11
5.1853618e-09
3.728462e-09
1.3027568e-09
-2.5003764e-10
-1.20153e-09
-1.5558745e-09
-1.6890856e-09
-1.649273e-09
-1.548953e-09
-1.4555002e-09
-1.3579954e-09
-1.2492243e-09
-1.1352754e-09
-1.0214095e-09
-9.131836e-10
-8.1364225e-10
-7.2384204e-10
-6.4399333e-10
-5.7362337e-10
-5.1114842e-10
-4.5942362e-10
-4.162707e-10
-3.8011847e-10
-3.4974024e-10
-3.2406552e-10
-3.0203901e-10
-2.8103234e-10
-2.6681902e-10
-2.5347416e-10
-2.4131576e-10
-2.3005981e-10
-2.1943546e-10
-2.0919094e-10
-1.993398e-10
-1.8930276e-10
-1.7912755e-10
-1.6876169e-10
-1.5810669e-10
-1.4709593e-10
-1.3568977e-10
-1.2387164e-10
-1.1164522e-10
-9.9031884e-11
-8.6068744e-11
-7.2807813e-11
-5.9314419e-11
-4.5664924e-11
-3.1945451e-11
-1.8250368e-11
-4.6800271e-12
8.6593588e-12
2.1655879e-11
3.4188733e-11
4.6123114e-11
5.7305247e-11
6.7546331e-11
7.6482189e-11
8.3408984e-11
8.6515308e-11
7.8645014e-11
-7.0915463e-10
-1.8140865e-09
-2.3252043e-09
-2.6100246e-09
-2.5466216e-09
-2.3762195e-09
-2.1520646e-09
-1.9026912e-09
-1.6558358e-09
-1.4251384e-09
-1.2165913e-09
-1.0324889e-09
-8.7078754e-10
-7.3158992e-10
-6.1368933e-10
-5.1473586e-10
-4.3188278e-10
-3.6220596e-10
-3.0296153e-10
-2.5167416e-10
-2.0663659e-10
-1.6670042e-10
-1.308549e-10
-9.8390045e-11
-6.8826869e-11
-4.1912504e-11
-1.7568397e-11
4.1854915e-12
2.3252048e-11
3.9521204e-11
5.2905898e-11
6.3364563e-11
7.0913653e-11
7.5631786e-11
7.7657729e-11
7.7188983e-11
7.447373e-11
6.9799375e-11
6.348241e-11
5.5856893e-11
4.7263971e-11
3.8041352e-11
2.8514276e-11
1.898715e-11
9.738289e-12
1.0098482e-12
-6.9742024e-12
-1.4100831e-11
-2.0224407e-11
-2.5271447e-11
-2.9210387e-11
-3.2048611e-11
-3.3829827e-11
-3.463673e-11
-3.4608898e-11
-3.4011536e-11
-3.3407246e-11
-3.401523e-11
-3.7371588e-11
-3.9898065e-11
2.3793042e-09
1.0445905e-09
-5.1557575e-10
-2.0348996e-09
-2.829808e-09
-3.0703984e-09
-3.0423747e-09
-2.8774975e-09
-2.6488401e-09
-2.393719e-09
-2.1316636e-09
-1.8741515e-09
-1.6280105e-09
-1.394789e-09
-1.1950998e-09
-1.0172522e-09
-8.6010278e-10
-7.1705432e-10
-5.8393822e-10
-4.9777365e-10
-4.2237092e-10
-3.5792349e-10
-3.0377664e-10
-2.5891543e-10
-2.2214002e-10
-1.9219576e-10
-1.6786232e-10
-1.4801449e-10
-1.316622e-10
-1.1797324e-10
-1.0627497e-10
-9.6048542e-11
-8.6926112e-11
-7.8680048e-11
-7.117947e-11
-6.4373247e-11
-5.8269826e-11
-5.2917348e-11
-4.8385475e-11
-4.4749676e-11
-4.2078807e-11
-4.0424915e-11
-3.985503e-11
-4.0301226e-11
-4.1754192e-11
-4.4155806e-11
-4.7409062e-11
-5.1380583e-11
-5.5902786e-11
-6.0778642e-11
-6.5793713e-11
-7.0740359e-11
-7.5461629e-11
-7.9919115e-11
-8.4304906e-11
-8.9181121e-11
-9.5557119e-11
-1.0499671e-10
-1.2145812e-10
-1.2990988e-10
)
;
    }
}


// ************************************************************************* //
