/*--------------------------------*- C++ -*----------------------------------*\
| =========                 |                                                 |
| \\      /  F ield         | OpenFOAM: The Open Source CFD Toolbox           |
|  \\    /   O peration     | Version:  3.0.1                                 |
|   \\  /    A nd           | Web:      www.OpenFOAM.org                      |
|    \\/     M anipulation  |                                                 |
\*---------------------------------------------------------------------------*/
FoamFile
{
    version     2.0;
    format      ascii;
    class       volScalarField;
    location    "475";
    object      p;
}
// * * * * * * * * * * * * * * * * * * * * * * * * * * * * * * * * * * * * * //

dimensions      [0 2 -2 0 0 0 0];

internalField   nonuniform List<scalar> 
480
(
1.0798483e-07
9.5717574e-08
3.3916341e-08
5.2344757e-08
1.2578596e-07
1.0589599e-07
1.899253e-08
3.4820315e-08
1.1578512e-07
1.0684769e-07
1.2665116e-08
2.3494857e-08
1.0169634e-07
1.0214647e-07
1.2603782e-08
1.7540994e-08
8.5643851e-08
9.0778573e-08
1.9237078e-08
1.9265543e-08
7.1791979e-08
7.858481e-08
2.599442e-08
2.3094921e-08
6.061801e-08
6.7567983e-08
3.1434774e-08
2.7218008e-08
5.1823639e-08
5.8092703e-08
3.5863061e-08
3.1443252e-08
4.5095878e-08
5.0243583e-08
3.9701878e-08
3.5780799e-08
4.0146893e-08
4.4015365e-08
4.3279865e-08
4.0233398e-08
3.6736076e-08
3.9333791e-08
4.6803886e-08
4.4785999e-08
3.4654488e-08
3.6070684e-08
5.0380338e-08
4.9412448e-08
3.3708131e-08
3.406199e-08
5.4046723e-08
5.4081065e-08
3.3712234e-08
3.3124529e-08
5.7799003e-08
5.8758423e-08
3.4488231e-08
3.307001e-08
6.1610144e-08
6.3411047e-08
3.586968e-08
3.3715645e-08
6.5440818e-08
6.8005536e-08
3.7709921e-08
3.4890618e-08
6.9245497e-08
7.2508251e-08
3.9874928e-08
3.6440919e-08
7.2976434e-08
7.6885085e-08
4.2241685e-08
3.8231945e-08
7.65863e-08
8.110193e-08
4.4706454e-08
4.0146947e-08
8.0030307e-08
8.5125826e-08
4.7180692e-08
4.2082802e-08
8.326843e-08
8.8926044e-08
4.9591081e-08
4.3958892e-08
8.6265919e-08
9.2475104e-08
5.1878933e-08
4.5711592e-08
8.8990785e-08
9.5749584e-08
5.3999191e-08
4.7292699e-08
9.1419556e-08
9.8730788e-08
5.5919275e-08
4.8668033e-08
9.3536116e-08
1.0140502e-07
5.7617771e-08
4.9815814e-08
9.5330742e-08
1.0376359e-07
5.9082939e-08
5.0725051e-08
9.6799975e-08
1.0580259e-07
6.0311363e-08
5.1393958e-08
9.7945729e-08
1.0752254e-07
6.1306609e-08
5.1828457e-08
9.8774704e-08
1.0892794e-07
6.2077921e-08
5.204078e-08
9.9297806e-08
1.1002669e-07
6.2639013e-08
5.2048172e-08
9.9529498e-08
1.1082957e-07
6.3006969e-08
5.1871714e-08
9.9487159e-08
1.113497e-07
6.3201254e-08
5.1535269e-08
9.9190458e-08
1.1160201e-07
6.3242858e-08
5.1064532e-08
9.8660769e-08
1.1160274e-07
6.3153556e-08
5.0486201e-08
9.7920623e-08
1.1136907e-07
6.2955029e-08
4.9827247e-08
9.6993228e-08
1.1091867e-07
6.2668882e-08
4.9114278e-08
9.5901897e-08
1.1026943e-07
6.2315832e-08
4.8372996e-08
9.4669869e-08
1.0943918e-07
6.1915425e-08
4.7627704e-08
9.3319892e-08
1.0844554e-07
6.1485818e-08
4.6900894e-08
9.1873901e-08
1.0730577e-07
6.1043607e-08
4.6212861e-08
9.0352779e-08
1.0603676e-07
6.0603728e-08
4.5581357e-08
8.8776171e-08
1.0465503e-07
6.0179411e-08
4.5021262e-08
8.7162336e-08
1.0317699e-07
5.978219e-08
4.4544248e-08
8.5528045e-08
1.0161902e-07
5.9421951e-08
4.4158431e-08
8.3888541e-08
9.999792e-08
5.9107003e-08
4.3867985e-08
8.2257545e-08
9.8331356e-08
5.8844178e-08
4.3672696e-08
8.064733e-08
9.6638461e-08
5.86389e-08
4.3567453e-08
7.9068882e-08
9.49406e-08
5.8495239e-08
4.3541608e-08
7.7532135e-08
9.3262292e-08
5.8415884e-08
4.3578234e-08
7.6046341e-08
9.1632319e-08
5.8402012e-08
4.3653236e-08
7.4620542e-08
9.0084979e-08
5.8452967e-08
4.3734303e-08
7.3264201e-08
8.8661511e-08
5.8565721e-08
4.3779297e-08
7.1987946e-08
8.7411995e-08
5.8734101e-08
4.3733451e-08
7.08044e-08
8.6398321e-08
5.8947986e-08
4.3527774e-08
6.9728828e-08
8.5695748e-08
5.9192349e-08
4.3087863e-08
6.8779504e-08
8.5383838e-08
5.9445086e-08
4.2343199e-08
6.7978554e-08
8.5536942e-08
5.9672927e-08
4.1129211e-08
6.7353641e-08
8.6320237e-08
5.9830471e-08
3.890784e-08
6.6931884e-08
8.8257944e-08
5.9867211e-08
3.5212227e-08
6.6730253e-08
9.1773574e-08
9.3784381e-08
8.3168892e-08
3.5363954e-08
4.6132021e-08
1.0178352e-07
9.4592556e-08
2.261313e-08
3.1567594e-08
1.0120875e-07
9.6986081e-08
1.7604278e-08
2.3859761e-08
9.5141002e-08
9.418353e-08
1.7683812e-08
2.0649378e-08
8.2811524e-08
8.453382e-08
2.3972647e-08
2.4126229e-08
7.0986953e-08
7.408033e-08
2.9949627e-08
2.8624631e-08
6.1002148e-08
6.4536639e-08
3.4664168e-08
3.2817204e-08
5.2844519e-08
5.6222078e-08
3.8515566e-08
3.6764008e-08
4.6384089e-08
4.9238028e-08
4.1918607e-08
4.0638208e-08
4.1480317e-08
4.361376e-08
4.5162646e-08
4.4548107e-08
3.7990414e-08
3.9325341e-08
4.841627e-08
4.8541173e-08
3.5765382e-08
3.6295583e-08
5.1760051e-08
5.2626808e-08
3.4649279e-08
3.4405621e-08
5.5217559e-08
5.6792895e-08
3.4479446e-08
3.3508619e-08
5.8781125e-08
6.1016308e-08
3.5092763e-08
3.3444774e-08
6.2425825e-08
6.5268324e-08
3.6332208e-08
3.4051743e-08
6.6111689e-08
6.951645e-08
3.8049536e-08
3.5172724e-08
6.9790986e-08
7.3725136e-08
4.0106603e-08
3.6661922e-08
7.341405e-08
7.7856607e-08
4.2383951e-08
3.8387341e-08
7.6931958e-08
8.1872205e-08
4.4774376e-08
4.0234476e-08
8.0298451e-08
8.573373e-08
4.7187262e-08
4.2109087e-08
8.3470888e-08
8.9405008e-08
4.9547878e-08
4.3931608e-08
8.6411337e-08
9.2853275e-08
5.1796419e-08
4.5638517e-08
8.9089652e-08
9.6050274e-08
5.3886911e-08
4.7181489e-08
9.148209e-08
9.8972914e-08
5.5785911e-08
4.8525929e-08
9.3570994e-08
1.0160359e-07
5.7471139e-08
4.9649484e-08
9.5345293e-08
1.0393023e-07
5.8930145e-08
5.0540514e-08
9.6800093e-08
1.0594604e-07
6.0158836e-08
5.1196574e-08
9.7936074e-08
1.0764914e-07
6.1160091e-08
5.1622946e-08
9.8758877e-08
1.0904203e-07
6.1942455e-08
5.1831265e-08
9.9278756e-08
1.1013101e-07
6.2518939e-08
5.1838224e-08
9.9509547e-08
1.1092559e-07
6.2905929e-08
5.1664409e-08
9.9468059e-08
1.1143787e-07
6.3122213e-08
5.1333235e-08
9.9173445e-08
1.1168201e-07
6.3188125e-08
5.0870007e-08
9.8646622e-08
1.1167366e-07
6.3124812e-08
5.0301087e-08
9.7909729e-08
1.1142954e-07
6.2953799e-08
4.9653159e-08
9.6985629e-08
1.1096701e-07
6.2695948e-08
4.8952584e-08
9.5897588e-08
1.1030375e-07
6.2371481e-08
4.8224839e-08
9.4668596e-08
1.0945745e-07
6.1999531e-08
4.749404e-08
9.3321206e-08
1.0844565e-07
6.1597879e-08
4.6782506e-08
9.1877223e-08
1.0728558e-07
6.1182777e-08
4.6110381e-08
9.0357443e-08
1.0599416e-07
6.0768838e-08
4.5495276e-08
8.8781453e-08
1.0458804e-07
6.036899e-08
4.4951933e-08
8.7167472e-08
1.0308366e-07
5.9994476e-08
4.4491887e-08
8.5532253e-08
1.0149757e-07
5.9654901e-08
4.412311e-08
8.3891026e-08
9.9846769e-08
5.9358296e-08
4.3849622e-08
8.2257514e-08
9.8149146e-08
5.9111211e-08
4.3671044e-08
8.0644011e-08
9.6424115e-08
5.8918791e-08
4.3582072e-08
7.9061537e-08
9.4693371e-08
5.8784831e-08
4.357186e-08
7.7520106e-08
9.2981832e-08
5.8711757e-08
4.3623267e-08
7.6029085e-08
9.1318744e-08
5.8700513e-08
4.3711975e-08
7.4597706e-08
8.9738959e-08
5.8750282e-08
4.3805449e-08
7.3235698e-08
8.8284353e-08
5.8857985e-08
4.3861326e-08
7.1954082e-08
8.7005744e-08
5.9017587e-08
4.382462e-08
7.0765989e-08
8.5965864e-08
5.9219375e-08
4.3626134e-08
6.9687254e-08
8.5240903e-08
5.9449109e-08
4.3191296e-08
6.8736786e-08
8.4911528e-08
5.9686166e-08
4.2449409e-08
6.7937767e-08
8.5054184e-08
5.9899553e-08
4.1234714e-08
6.7318952e-08
8.5838186e-08
6.0043758e-08
3.9001385e-08
6.6904718e-08
8.7789653e-08
6.0059049e-08
3.5265803e-08
6.6698373e-08
9.1327251e-08
)
;

boundaryField
{
    movingWall
    {
        type            zeroGradient;
    }
    CPLReceiveMD
    {
        type            zeroGradient;
    }
    streamwiseIn
    {
        type            cyclic;
    }
    streamwiseOut
    {
        type            cyclic;
    }
    front
    {
        type            cyclic;
    }
    back
    {
        type            cyclic;
    }
    procBoundary0to1
    {
        type            processor;
        value           nonuniform List<scalar> 
240
(
7.5199678e-08
7.4004305e-08
2.4562661e-08
3.0752094e-08
8.6813036e-08
8.6364955e-08
1.0513873e-08
1.5201568e-08
9.0418616e-08
9.070243e-08
5.1534177e-09
6.9568907e-09
8.7613882e-08
8.9540325e-08
6.25066e-09
4.3804773e-09
7.753218e-08
8.1257002e-08
1.4153069e-08
9.1351366e-09
6.6944711e-08
7.1606381e-08
2.2087753e-08
1.5514728e-08
5.7776884e-08
6.2605672e-08
2.8528965e-08
2.1689486e-08
5.0227832e-08
5.4654165e-08
3.3765536e-08
2.7502589e-08
4.4263225e-08
4.7913358e-08
3.8233731e-08
3.3032772e-08
3.9779235e-08
4.2473065e-08
4.2285679e-08
3.8360029e-08
3.6644423e-08
3.8339628e-08
4.6156163e-08
4.3540515e-08
3.4715298e-08
3.5450576e-08
4.997894e-08
4.860848e-08
3.3841812e-08
3.3692585e-08
5.381619e-08
5.3581169e-08
3.387004e-08
3.2920897e-08
5.76828e-08
5.8463395e-08
3.4645463e-08
3.2974234e-08
6.1565174e-08
6.3250769e-08
3.6017157e-08
3.3688247e-08
6.5437623e-08
6.7931469e-08
3.784189e-08
3.4905177e-08
6.9266251e-08
7.2487339e-08
3.9987811e-08
3.6479488e-08
7.3010418e-08
7.6895221e-08
4.2336806e-08
3.8281284e-08
7.6626846e-08
8.11287e-08
4.4785426e-08
4.0196238e-08
8.0072816e-08
8.5160024e-08
4.7245415e-08
4.2128484e-08
8.3308999e-08
8.8961961e-08
4.9643562e-08
4.39993e-08
8.6300916e-08
9.2509387e-08
5.1921106e-08
4.5746171e-08
8.9019911e-08
9.5780494e-08
5.4032835e-08
4.7321613e-08
9.1443546e-08
9.8757616e-08
5.5945978e-08
4.8691807e-08
9.3555786e-08
1.0142768e-07
5.7638881e-08
4.9835114e-08
9.534688e-08
1.0378233e-07
5.9099573e-08
5.0740562e-08
9.6813145e-08
1.0581784e-07
6.0324441e-08
5.1406321e-08
9.7956376e-08
1.0753481e-07
6.1316872e-08
5.1838249e-08
9.8783378e-08
1.0893771e-07
6.2085966e-08
5.2048494e-08
9.9304862e-08
1.1003441e-07
6.2645314e-08
5.205422e-08
9.9535215e-08
1.1083564e-07
6.3011901e-08
5.1876437e-08
9.9491768e-08
1.1135445e-07
6.3205114e-08
5.1538943e-08
9.9194158e-08
1.116057e-07
6.3245878e-08
5.1067379e-08
9.8663729e-08
1.1160561e-07
6.3155883e-08
5.04884e-08
9.7922988e-08
1.1137129e-07
6.2956799e-08
4.9828938e-08
9.6995097e-08
1.1092037e-07
6.2670242e-08
4.9115573e-08
9.5903325e-08
1.1027073e-07
6.2316875e-08
4.8373984e-08
9.4670956e-08
1.0944018e-07
6.1916222e-08
4.7628456e-08
9.3320717e-08
1.084463e-07
6.1486425e-08
4.6901465e-08
9.1874525e-08
1.0730635e-07
6.1044069e-08
4.6213293e-08
9.035325e-08
1.060372e-07
6.0604077e-08
4.5581684e-08
8.8776526e-08
1.0465537e-07
6.0179675e-08
4.5021508e-08
8.7162602e-08
1.0317724e-07
5.9782389e-08
4.4544434e-08
8.5528245e-08
1.0161921e-07
5.94221e-08
4.4158571e-08
8.3888691e-08
9.9998061e-08
5.9107115e-08
4.386809e-08
8.2257656e-08
9.8331462e-08
5.8844261e-08
4.3672775e-08
8.0647413e-08
9.6638541e-08
5.8638962e-08
4.3567512e-08
7.9068943e-08
9.494066e-08
5.8495285e-08
4.3541652e-08
7.7532181e-08
9.3262337e-08
5.8415919e-08
4.3578266e-08
7.6046375e-08
9.1632352e-08
5.8402037e-08
4.365326e-08
7.4620568e-08
9.0085004e-08
5.8452986e-08
4.3734321e-08
7.326422e-08
8.8661529e-08
5.8565735e-08
4.377931e-08
7.198796e-08
8.7412009e-08
5.8734112e-08
4.3733461e-08
7.080441e-08
8.6398331e-08
5.8947994e-08
4.3527781e-08
6.9728836e-08
8.5695756e-08
5.9192355e-08
4.3087868e-08
6.8779509e-08
8.5383843e-08
5.9445091e-08
4.2343204e-08
6.7978559e-08
8.5536946e-08
5.9672931e-08
4.1129214e-08
6.7353645e-08
8.632024e-08
5.9830474e-08
3.8907843e-08
6.6931888e-08
8.8257947e-08
5.9867215e-08
3.521223e-08
6.6730256e-08
9.1773577e-08
)
;
    }
    procBoundary0to1throughfront
    {
        type            processorCyclic;
        value           nonuniform List<scalar> 
240
(
9.3814431e-08
1.0211188e-07
1.0188796e-07
9.6043143e-08
8.3779556e-08
7.1901746e-08
6.1792604e-08
5.3489922e-08
4.68921e-08
4.1868968e-08
3.8277983e-08
3.5967838e-08
3.4781048e-08
3.4556565e-08
3.5133927e-08
3.6353576e-08
3.8058783e-08
4.0110033e-08
4.2383354e-08
4.4771281e-08
4.7182815e-08
4.9542845e-08
5.17913e-08
5.3882023e-08
5.5781441e-08
5.7467181e-08
5.8926729e-08
6.015595e-08
6.1157698e-08
6.1940505e-08
6.2517375e-08
6.2904693e-08
6.3121251e-08
6.3187385e-08
6.312424e-08
6.2953355e-08
6.2695611e-08
6.2371227e-08
6.1999342e-08
6.1597738e-08
6.1182672e-08
6.076876e-08
6.0368932e-08
5.9994434e-08
5.9654869e-08
5.9358272e-08
5.9111193e-08
5.8918779e-08
5.8784822e-08
5.871175e-08
5.8700508e-08
5.8750278e-08
5.8857982e-08
5.9017585e-08
5.9219374e-08
5.9449108e-08
5.9686165e-08
5.9899553e-08
6.0043757e-08
6.0059049e-08
8.4527012e-08
9.5786945e-08
9.8034344e-08
9.5010524e-08
8.5136688e-08
7.449752e-08
6.4819939e-08
5.6407986e-08
4.9352582e-08
4.3680913e-08
3.936184e-08
3.6311308e-08
3.4406884e-08
3.3501202e-08
3.3433305e-08
3.4039194e-08
3.5160552e-08
3.6650303e-08
3.8376228e-08
4.0224758e-08
4.2100929e-08
4.3924787e-08
4.5632843e-08
4.7176781e-08
4.8522024e-08
4.9646244e-08
5.0537824e-08
5.1194342e-08
5.1621099e-08
5.1829742e-08
5.1836975e-08
5.1663389e-08
5.1332407e-08
5.0869339e-08
5.030055e-08
4.9652729e-08
4.8952242e-08
4.8224569e-08
4.7493828e-08
4.6782341e-08
4.6110253e-08
4.5495178e-08
4.4951858e-08
4.4491831e-08
4.4123068e-08
4.3849591e-08
4.3671022e-08
4.3582056e-08
4.3571849e-08
4.3623259e-08
4.371197e-08
4.3805446e-08
4.3861324e-08
4.3824618e-08
4.3626132e-08
4.3191295e-08
4.2449408e-08
4.1234713e-08
3.9001384e-08
3.5265801e-08
3.6530878e-08
2.3807235e-08
1.8788398e-08
1.8739541e-08
2.4821245e-08
3.0593247e-08
3.5131628e-08
3.8843976e-08
4.2142499e-08
4.5311111e-08
4.8512952e-08
5.1823438e-08
5.526189e-08
5.8814864e-08
6.2450761e-08
6.6128065e-08
6.9799893e-08
7.3417395e-08
7.6931689e-08
8.0295878e-08
8.3466467e-08
8.6405799e-08
8.9084172e-08
9.1476964e-08
9.3566383e-08
9.5341266e-08
9.6796656e-08
9.7933161e-08
9.8756511e-08
9.927688e-08
9.9508088e-08
9.946694e-08
9.9172599e-08
9.8645992e-08
9.7909267e-08
9.6985292e-08
9.589733e-08
9.4668399e-08
9.3321056e-08
9.187711e-08
9.0357358e-08
8.8781389e-08
8.7167425e-08
8.5532217e-08
8.3890999e-08
8.2257495e-08
8.0643996e-08
7.9061526e-08
7.7520097e-08
7.6029079e-08
7.4597701e-08
7.3235694e-08
7.1954079e-08
7.0765987e-08
6.9687253e-08
6.8736785e-08
6.7937766e-08
6.7318952e-08
6.6904718e-08
6.6698373e-08
4.8330463e-08
3.3687894e-08
2.5812892e-08
2.2320652e-08
2.5462475e-08
2.9632462e-08
3.3539252e-08
3.7257331e-08
4.0959816e-08
4.4747287e-08
4.8656857e-08
5.2687888e-08
5.6819846e-08
6.1023089e-08
6.5264098e-08
6.9506967e-08
7.3713753e-08
7.7845208e-08
8.186169e-08
8.572444e-08
8.9396983e-08
9.2846433e-08
9.6044494e-08
9.8968058e-08
1.0159953e-07
1.0392684e-07
1.0594322e-07
1.076468e-07
1.090401e-07
1.1012942e-07
1.1092429e-07
1.1143681e-07
1.1168115e-07
1.1167297e-07
1.1142898e-07
1.1096657e-07
1.103034e-07
1.0945718e-07
1.0844543e-07
1.0728541e-07
1.0599403e-07
1.0458794e-07
1.0308358e-07
1.0149752e-07
9.9846727e-08
9.8149115e-08
9.6424092e-08
9.4693355e-08
9.298182e-08
9.1318736e-08
8.9738953e-08
8.8284349e-08
8.7005741e-08
8.5965863e-08
8.5240901e-08
8.4911527e-08
8.5054183e-08
8.5838185e-08
8.7789652e-08
9.132725e-08
)
;
    }
}


// ************************************************************************* //
