/*--------------------------------*- C++ -*----------------------------------*\
| =========                 |                                                 |
| \\      /  F ield         | OpenFOAM: The Open Source CFD Toolbox           |
|  \\    /   O peration     | Version:  3.0.1                                 |
|   \\  /    A nd           | Web:      www.OpenFOAM.org                      |
|    \\/     M anipulation  |                                                 |
\*---------------------------------------------------------------------------*/
FoamFile
{
    version     2.0;
    format      ascii;
    class       surfaceScalarField;
    location    "475";
    object      phi;
}
// * * * * * * * * * * * * * * * * * * * * * * * * * * * * * * * * * * * * * //

dimensions      [0 3 -1 0 0 0 0];

internalField   nonuniform List<scalar> 
1072
(
-0.048762201
-3.5714109e-07
-8.8984417e-09
-0.048762453
2.3794899e-07
2.9257273e-09
-0.048762222
-2.5231079e-07
-2.7205855e-09
-2.9287592e-07
8.4185407e-10
0.19784546
1.6576418e-07
-1.4859039e-08
0.19784493
7.4438458e-07
-4.0664204e-10
0.19784542
-7.1369664e-07
-6.3130626e-09
-8.2390072e-07
-4.5448788e-09
0.29094245
6.1606022e-07
-1.7291181e-08
0.29094201
1.1809444e-06
-1.5671043e-09
0.2909424
-1.0941564e-06
-7.1037633e-09
-1.292759e-06
-6.8008612e-09
0.32030968
8.731315e-07
-1.643753e-08
0.32030945
1.408694e-06
-2.660975e-09
0.32030965
-1.2820026e-06
-6.7143761e-09
-1.553236e-06
-7.5427491e-09
0.3303293
9.2108295e-07
-1.301142e-08
0.33032928
1.4153932e-06
-2.8122511e-09
0.33032929
-1.2748774e-06
-5.8764318e-09
-1.5862687e-06
-7.4261269e-09
0.33822016
9.1596377e-07
-9.7339609e-09
0.33822021
1.3631423e-06
-2.6894243e-09
0.33822017
-1.2292733e-06
-4.8961576e-09
-1.5531467e-06
-6.8108727e-09
0.34877477
9.4305537e-07
-7.2104836e-09
0.34877477
1.3549106e-06
-2.4695285e-09
0.34877478
-1.2271876e-06
-4.0091931e-09
-1.5577144e-06
-6.0187006e-09
0.3624277
9.9893e-07
-5.3495911e-09
0.36242765
1.3963649e-06
-2.2165834e-09
0.36242769
-1.2618289e-06
-3.2678549e-09
-1.6066931e-06
-5.1887203e-09
0.37884978
1.0432831e-06
-3.9741961e-09
0.37884973
1.444594e-06
-1.9531044e-09
0.37884976
-1.2902552e-06
-2.6608032e-09
-1.6582295e-06
-4.39176e-09
0.39802081
1.0427202e-06
-2.9554419e-09
0.39802079
1.457942e-06
-1.6898522e-09
0.39802078
-1.2771951e-06
-2.1666357e-09
-1.6716807e-06
-3.6648434e-09
0.42027735
9.8698263e-07
-2.2034657e-09
0.42027739
1.4184265e-06
-1.4364956e-09
0.42027732
-1.2111357e-06
-1.7620298e-09
-1.6299683e-06
-3.023508e-09
0.44610816
8.8549423e-07
-1.6260539e-09
0.44610825
1.3312956e-06
-1.2002929e-09
0.44610814
-1.1007646e-06
-1.4281515e-09
-1.5390956e-06
-2.4704621e-09
0.47598185
7.571657e-07
-1.1863104e-09
0.47598197
1.2147906e-06
-9.8588984e-10
0.47598184
-9.6452633e-07
-1.1510802e-09
-1.417891e-06
-2.001374e-09
0.51026453
6.212786e-07
-8.5942673e-10
0.51026466
1.0897147e-06
-7.9629747e-10
0.51026452
-8.2140319e-07
-9.2124197e-10
-1.2875825e-06
-1.6085863e-09
0.54920654
4.9235578e-07
-6.2972251e-10
0.54920666
9.7286284e-07
-6.3264709e-10
0.54920652
-6.8574007e-07
-7.319024e-10
-1.1652525e-06
-1.2832732e-09
0.59296434
3.7872204e-07
-4.7342803e-10
0.59296444
8.7456561e-07
-4.9120493e-10
0.59296432
-5.6577056e-07
-5.7663902e-10
-1.0614207e-06
-1.0165588e-09
0.64163232
2.8333728e-07
-3.5455996e-10
0.6416324
7.9901104e-07
-3.6833197e-10
0.6416323
-4.6438464e-07
-4.4989078e-10
-9.8039424e-07
-7.9998063e-10
0.69527125
2.0544132e-07
-2.742662e-10
0.6952713
7.4582244e-07
-2.5496866e-10
0.69527122
-3.8076631e-07
-3.4662772e-10
-9.2187293e-07
-6.258236e-10
0.75392884
1.4216189e-07
-1.9284503e-10
0.75392888
7.1190071e-07
-1.8058862e-10
0.75392881
-3.1203474e-07
-2.6229715e-10
-8.8275432e-07
-4.872073e-10
0.81765254
8.9832462e-08
-1.2945742e-10
0.81765256
6.9281156e-07
-1.3629839e-10
0.81765251
-2.5450938e-07
-1.9308368e-10
-8.5861125e-07
-3.7801032e-10
0.88649613
4.4786573e-08
-8.0087702e-11
0.88649614
6.8376649e-07
-9.0026484e-11
0.88649609
-2.0451895e-07
-1.3558751e-10
-8.4469901e-07
-2.9287657e-10
0.9605223
3.8072981e-09
-4.1839628e-11
0.9605223
6.8026999e-07
-5.074585e-11
0.96052226
-1.5882888e-07
-1.0049411e-10
-8.3654001e-07
-2.2719594e-10
1.0398028
-3.5681225e-08
-1.2550561e-11
1.0398028
6.7837536e-07
-1.9023318e-11
1.0398027
-1.1487917e-07
-7.4496564e-11
-8.3020363e-07
-1.7707579e-10
1.1244169
-7.5576226e-08
9.4223654e-12
1.1244169
6.7477201e-07
6.2717523e-12
1.1244169
-7.0782871e-08
-5.1773373e-11
-8.2239322e-07
-1.3923664e-10
1.21445
-1.1713881e-07
2.5364463e-11
1.2144501
6.6677129e-07
2.6140124e-11
1.21445
-2.528226e-08
-3.4453141e-11
-8.1043024e-07
-1.1093201e-10
1.3099908
-1.6107048e-07
3.6321064e-11
1.3099908
6.5224647e-07
4.1452501e-11
1.3099907
2.2326242e-08
-2.154048e-11
-7.9219275e-07
-8.9906443e-11
1.411129
-2.0759806e-07
4.3092488e-11
1.4111291
6.2956016e-07
5.29561e-11
1.411129
7.2277749e-08
-1.2127256e-11
-7.6604166e-07
-7.433936e-11
1.5179536
-2.5655484e-07
4.6334174e-11
1.5179536
5.9749589e-07
6.1285444e-11
1.5179536
1.2442046e-07
-5.4491346e-12
-7.3075176e-07
-6.2783203e-11
1.63055
-3.0745367e-07
4.6603e-11
1.63055
5.5520066e-07
6.6974882e-11
1.63055
1.7828854e-07
-8.6674443e-13
-6.8545414e-07
-5.4103142e-11
1.7489982
-3.5955174e-07
4.4382431e-11
1.7489982
5.0213962e-07
7.0470502e-11
1.7489982
2.3316626e-07
2.0440084e-12
-6.2959124e-07
-4.7409924e-11
1.8733706
-4.119082e-07
4.0099583e-11
1.8733707
4.3806152e-07
7.2145583e-11
1.8733706
2.8814469e-07
3.6582202e-12
-5.6288309e-07
-4.2011006e-11
2.0037305
-4.634366e-07
3.4135344e-11
2.0037306
3.6297274e-07
7.2312395e-11
2.0037305
3.4217292e-07
4.2977278e-12
-4.8530238e-07
-3.7362431e-11
2.1401297
-5.1295364e-07
2.6830324e-11
2.1401297
2.7711766e-07
7.1231305e-11
2.1401297
3.9410565e-07
4.2370558e-12
-3.9705602e-07
-3.3041297e-11
2.282607
-5.5922541e-07
1.8494076e-11
2.2826071
1.8096355e-07
6.911845e-11
2.2826071
4.4274826e-07
3.7069954e-12
-2.9857134e-07
-2.8723299e-11
2.4311871
-6.0101051e-07
8.8132547e-12
2.4311872
7.5188922e-08
6.6152063e-11
2.4311872
4.869003e-07
2.9008967e-12
-1.9048554e-07
-2.4164469e-11
2.5858786
-6.3710726e-07
-8.2582914e-13
2.5858787
-3.9325832e-08
6.2476633e-11
2.5858787
5.2539843e-07
1.6672617e-12
-7.3637737e-08
-1.9187943e-11
2.7466728
-6.6639163e-07
-1.0811009e-11
2.746673
-1.6150547e-07
5.8214353e-11
2.7466729
5.5715575e-07
6.6071479e-13
5.0937161e-08
-1.3665479e-11
2.9135432
-6.8785935e-07
-2.09818e-11
2.9135433
-2.9008504e-07
5.3468389e-11
2.9135433
5.8120351e-07
-2.2841633e-13
1.8201274e-07
-7.508636e-12
3.0864436
-7.0066534e-07
-3.1170082e-11
3.0864437
-4.2361288e-07
4.8325752e-11
3.0864437
5.967296e-07
-9.9879664e-13
3.181733e-07
-6.6217462e-13
3.2653081
-7.0416126e-07
-4.1222639e-11
3.2653082
-5.60451e-07
4.2860919e-11
3.2653082
6.0311544e-07
-1.5997752e-12
4.5781361e-07
6.9021242e-12
3.45005
-6.9793082e-07
-5.1001068e-11
3.4500502
-6.9877237e-07
3.713888e-11
3.4500502
5.9997092e-07
-1.9905837e-12
5.9913568e-07
1.5192535e-11
3.6405616
-6.8182217e-07
-6.0379427e-11
3.6405618
-8.3655395e-07
3.1218291e-11
3.6405618
5.8716643e-07
-2.1423119e-12
7.4014125e-07
2.4262889e-11
3.8367137
-6.5597644e-07
-6.9240359e-11
3.8367138
-9.7156435e-07
2.5154217e-11
3.8367139
5.6486118e-07
-2.0347538e-12
8.7861966e-07
3.389963e-11
4.0383554
-6.2085144e-07
-7.7473525e-11
4.0383555
-1.1013446e-06
1.9000772e-11
4.0383556
5.3352662e-07
-1.6552761e-12
1.0121279e-06
4.4174363e-11
4.2453143
-5.7723885e-07
-8.4972515e-11
4.2453144
-1.2231808e-06
1.2813018e-11
4.2453144
4.9396341e-07
-9.9685477e-13
1.137963e-06
5.501931e-11
4.4573965
-5.2627311e-07
-9.1633143e-11
4.4573966
-1.334067e-06
6.6490525e-12
4.4573966
4.473101e-07
-5.7670448e-14
1.2531252e-06
6.6352273e-11
4.6743869
-4.6942922e-07
-9.7351623e-11
4.674387
-1.4306593e-06
5.7127762e-13
4.6743871
3.9504068e-07
1.1580583e-12
1.3542719e-06
7.8073517e-11
4.8960499
-4.085058e-07
-1.0202441e-10
4.89605
-1.5092222e-06
-5.349211e-12
4.8960501
3.3894743e-07
2.6375941e-12
1.4376635e-06
9.006331e-11
5.1221298
-3.4558844e-07
-1.0554967e-10
5.1221299
-1.5655757e-06
-1.1039665e-11
5.1221299
2.8110416e-07
4.3543396e-12
1.4991109e-06
1.0217843e-10
5.3523516
-2.8298634e-07
-1.0783089e-10
5.3523516
-1.5950558e-06
-1.6421346e-11
5.3523516
2.2380282e-07
6.2658306e-12
1.5339363e-06
1.1424892e-10
5.5864219
-2.2313335e-07
-1.0878356e-10
5.5864219
-1.5925225e-06
-2.1418452e-11
5.5864219
1.6945478e-07
8.311924e-12
1.5369811e-06
1.260746e-10
5.8240301
-1.6844157e-07
-1.0834741e-10
5.8240301
-1.5524716e-06
-2.5935896e-11
5.8240301
1.2044527e-07
1.0379147e-11
1.5027192e-06
1.3742298e-10
6.0648497
-1.21094e-07
-1.0650388e-10
6.0648496
-1.4693612e-06
-2.9898892e-11
6.0648497
7.8927464e-08
1.2334437e-11
1.4255847e-06
1.4802589e-10
6.3085392
-8.2764061e-08
-1.0330307e-10
6.3085391
-1.3383428e-06
-3.322716e-11
6.3085391
4.6544449e-08
1.3992374e-11
1.3007048e-06
1.575762e-10
6.5547439
-5.426165e-08
-9.8893923e-11
6.5547437
-1.1567037e-06
-3.5845885e-11
6.5547437
2.4078437e-08
1.5145799e-11
1.1253463e-06
1.657352e-10
6.8030973
-3.5142944e-08
-9.3562373e-11
6.8030971
-9.2645412e-07
-3.7693554e-11
6.8030971
1.1064599e-08
1.5563309e-11
9.0150653e-07
1.7209945e-10
7.0532229
-2.3407582e-08
-8.7848009e-11
7.0532226
-6.5843715e-07
-3.8704545e-11
7.0532226
5.4954502e-09
1.4860547e-11
6.4002578e-07
1.7590708e-10
7.3047356
-1.5563563e-08
-8.2581261e-11
7.3047353
-3.7775427e-07
-3.8446471e-11
7.3047353
3.8939842e-09
1.263872e-11
3.6601126e-07
1.7564965e-10
7.5572439
-7.6835512e-09
-7.7720092e-11
7.5572437
-1.2978747e-07
-3.4086841e-11
7.5572437
2.3370135e-09
9.8979148e-12
1.248273e-07
1.70636e-10
7.8103515
-6.2395567e-11
7.8103513
-1.7425068e-11
7.8103513
1.0368923e-11
1.4516356e-10
-0.048762236
2.2518568e-07
-0.048762508
2.4962153e-07
-0.048762279
-2.4659659e-07
-2.6948781e-07
0.19784534
6.3548761e-07
0.19784482
7.5468789e-07
0.19784525
-6.8093236e-07
-7.8823014e-07
0.2909423
9.8021471e-07
0.29094187
1.1965723e-06
0.29094222
-1.0497464e-06
-1.2497319e-06
0.32030956
1.1332625e-06
0.32030933
1.4219575e-06
0.3203095
-1.2264228e-06
-1.4973974e-06
0.33032922
1.1035141e-06
0.33032921
1.4268173e-06
0.33032919
-1.2181261e-06
-1.5244352e-06
0.33822013
1.0456378e-06
0.33822017
1.3757356e-06
0.33822013
-1.1787705e-06
-1.4939652e-06
0.34877476
1.0368703e-06
0.34877476
1.3696694e-06
0.34877476
-1.185303e-06
-1.5061313e-06
0.36242768
1.0674338e-06
0.36242764
1.4124825e-06
0.36242767
-1.2279439e-06
-1.564146e-06
0.37884975
1.0932417e-06
0.3788497
1.4605852e-06
0.37884973
-1.2627866e-06
-1.6241581e-06
0.39802077
1.0788384e-06
0.39802075
1.4725082e-06
0.39802074
-1.254711e-06
-1.644817e-06
0.4202773
1.0127496e-06
0.42027735
1.4308172e-06
0.42027728
-1.192659e-06
-1.609016e-06
0.44610812
9.0362994e-07
0.44610821
1.3412908e-06
0.4461081
-1.0856847e-06
-1.5229564e-06
0.47598182
7.6974722e-07
0.47598194
1.2225389e-06
0.4759818
-9.5244107e-07
-1.4056806e-06
0.5102645
6.2983068e-07
0.51026463
1.095543e-06
0.51026449
-8.1198842e-07
-1.278582e-06
0.54920651
4.9796441e-07
0.54920664
9.7714553e-07
0.5492065
-6.7865701e-07
-1.1588602e-06
0.59296432
3.8216373e-07
0.59296442
8.7766794e-07
0.59296431
-5.6067642e-07
-1.0571217e-06
0.64163231
2.8516901e-07
0.64163239
8.0126255e-07
0.64163228
-4.6092706e-07
-9.7774588e-07
0.69527123
2.0604533e-07
0.69527129
7.4751674e-07
0.6952712
-3.7861669e-07
-9.2049941e-07
0.75392882
1.4185246e-07
0.75392886
7.1321493e-07
0.75392879
-3.1090368e-07
-8.8234202e-07
0.81765252
8.8844891e-08
0.81765255
6.9384139e-07
0.81765249
-2.5414478e-07
-8.5890507e-07
0.88649611
4.3303579e-08
0.88649612
6.8460515e-07
0.88649607
-2.0470784e-07
-8.454965e-07
0.96052228
1.9739041e-09
0.96052228
6.8098222e-07
0.96052224
-1.594274e-07
-8.3768426e-07
1.0398027
-3.7748492e-08
1.0398027
6.7900207e-07
1.0398027
-1.1576818e-07
-8.315741e-07
1.1244169
-7.7783321e-08
1.1244169
6.7533664e-07
1.1244169
-7.1865467e-08
-8.2389758e-07
1.21445
-1.1941001e-07
1.21445
6.6728468e-07
1.21445
-2.6486603e-08
-8.1199745e-07
1.3099908
-1.6334535e-07
1.3099908
6.5271069e-07
1.3099907
2.1050573e-08
-7.9376729e-07
1.411129
-2.09829e-07
1.411129
6.2997141e-07
1.411129
7.0963565e-08
-7.6757905e-07
1.5179536
-2.5870508e-07
1.5179536
5.9784654e-07
1.5179536
1.2308643e-07
-7.3221528e-07
1.63055
-3.0949544e-07
1.63055
5.5548073e-07
1.63055
1.7694253e-07
-6.8681253e-07
1.7489981
-3.6146453e-07
1.7489982
5.0233764e-07
1.7489981
2.3180759e-07
-6.3081723e-07
1.8733706
-4.1367721e-07
1.8733707
4.3816513e-07
1.8733706
2.8676637e-07
-5.6395258e-07
2.0037305
-4.6505132e-07
2.0037306
3.62969e-07
2.0037305
3.4076365e-07
-4.8619397e-07
2.1401296
-5.1440658e-07
2.1401297
2.7699318e-07
2.1401297
3.9265153e-07
-3.977508e-07
2.282607
-5.6051109e-07
2.2826071
1.8070468e-07
2.2826071
4.4123427e-07
-2.9905284e-07
2.4311871
-6.0212708e-07
2.4311872
7.4781787e-08
2.4311872
4.8531146e-07
-1.9073978e-07
2.5858786
-6.3805078e-07
2.5858787
-3.9895061e-08
2.5858786
5.2371942e-07
-7.3653089e-08
2.7466728
-6.6715855e-07
2.746673
-1.6225034e-07
2.7466729
5.5537437e-07
5.1169977e-08
2.9135432
-6.8844629e-07
2.9135433
-2.910186e-07
2.9135433
5.7930969e-07
1.8250065e-07
3.0864436
-7.0106901e-07
3.0864437
-4.2474734e-07
3.0864437
5.9471571e-07
3.189209e-07
3.2653081
-7.0437846e-07
3.2653082
-5.6179733e-07
3.2653082
6.0097659e-07
4.5882319e-07
3.45005
-6.9795862e-07
3.4500502
-7.0033983e-07
3.4500502
5.9770518e-07
6.0040729e-07
3.6405616
-6.8165816e-07
3.6405618
-8.383495e-07
3.6405618
5.8477504e-07
7.4167297e-07
3.8367137
-6.5561915e-07
3.8367138
-9.7359204e-07
3.8367139
5.6234873e-07
8.8040685e-07
4.0383554
-6.2030082e-07
4.0383555
-1.1036049e-06
4.0383556
5.3090128e-07
1.0141634e-06
4.2453143
-5.7649688e-07
4.2453144
-1.2256696e-06
4.2453145
4.9123729e-07
1.1402371e-06
4.4573965
-5.2534449e-07
4.4573966
-1.336775e-06
4.4573966
4.4449966e-07
1.2556251e-06
4.6743869
-4.6832227e-07
4.674387
-1.4335708e-06
4.6743871
3.9216728e-07
1.3569806e-06
4.8960499
-4.0723342e-07
4.89605
-1.5123141e-06
4.8960501
3.3603815e-07
1.4405598e-06
5.1221298
-3.4416927e-07
5.1221299
-1.5688159e-06
5.1221299
2.7819266e-07
1.5021677e-06
5.3523516
-2.8144599e-07
5.3523516
-1.5984019e-06
5.3523517
2.2093043e-07
1.5371193e-06
5.5864219
-2.2150565e-07
5.5864219
-1.5959193e-06
5.5864219
1.6667171e-07
1.540247e-06
5.8240301
-1.6676956e-07
5.8240301
-1.5558488e-06
5.8240302
1.1781149e-07
1.506013e-06
6.0648497
-1.1943035e-07
6.0648497
-1.4726302e-06
6.0648497
7.6513086e-08
1.428837e-06
6.3085392
-8.116988e-08
6.3085391
-1.3413925e-06
6.3085391
4.4428636e-08
1.3038282e-06
6.5547439
-5.2802344e-08
6.5547437
-1.1593978e-06
6.5547438
2.2345726e-08
1.1282318e-06
6.8030974
-3.3878712e-08
6.8030971
-9.2863323e-07
6.8030971
9.7968949e-09
9.0402415e-07
7.0532229
-2.2376482e-08
7.0532227
-6.5993567e-07
7.0532227
4.7566114e-09
6.4203534e-07
7.3047356
-1.475792e-08
7.3047354
-3.7845567e-07
7.3047354
3.7078107e-09
3.6740646e-07
7.5572439
-7.0382039e-09
7.5572437
-1.2969582e-07
7.5572437
2.6516478e-09
1.2558881e-07
7.8103515
7.8103513
7.8103513
)
;

boundaryField
{
    movingWall
    {
        type            calculated;
        value           uniform 0;
    }
    CPLReceiveMD
    {
        type            calculated;
        value           uniform 0;
    }
    streamwiseIn
    {
        type            cyclic;
        value           nonuniform List<scalar> 
120
(
0.048761945
-0.19784595
-0.29094284
-0.3203099
-0.33032932
-0.33822014
-0.34877478
-0.36242774
-0.37884981
-0.39802079
-0.42027728
-0.44610805
-0.47598172
-0.51026439
-0.5492064
-0.59296422
-0.64163222
-0.69527116
-0.75392877
-0.81765248
-0.88649608
-0.96052225
-1.0398027
-1.1244169
-1.21445
-1.3099907
-1.411129
-1.5179536
-1.6305499
-1.7489981
-1.8733706
-2.0037305
-2.1401296
-2.282607
-2.4311871
-2.5858785
-2.7466728
-2.9135432
-3.0864436
-3.2653081
-3.45005
-3.6405616
-3.8367137
-4.0383554
-4.2453143
-4.4573965
-4.674387
-4.89605
-5.1221299
-5.3523516
-5.5864219
-5.8240302
-6.0648498
-6.3085392
-6.5547439
-6.8030973
-7.0532229
-7.3047356
-7.5572439
-7.8103515
0.048762014
-0.19784577
-0.29094265
-0.32030974
-0.33032922
-0.3382201
-0.34877477
-0.36242773
-0.37884979
-0.39802076
-0.42027724
-0.44610801
-0.47598169
-0.51026436
-0.54920638
-0.59296421
-0.64163221
-0.69527115
-0.75392876
-0.81765247
-0.88649606
-0.96052224
-1.0398027
-1.1244169
-1.21445
-1.3099907
-1.411129
-1.5179535
-1.6305499
-1.7489981
-1.8733706
-2.0037304
-2.1401296
-2.282607
-2.4311871
-2.5858785
-2.7466728
-2.9135431
-3.0864436
-3.2653081
-3.45005
-3.6405616
-3.8367137
-4.0383554
-4.2453143
-4.4573965
-4.674387
-4.89605
-5.1221299
-5.3523516
-5.5864219
-5.8240302
-6.0648498
-6.3085393
-6.554744
-6.8030974
-7.0532229
-7.3047356
-7.5572439
-7.8103515
)
;
    }
    streamwiseOut
    {
        type            cyclic;
        value           nonuniform List<scalar> 
120
(
-0.048761945
0.19784595
0.29094284
0.3203099
0.33032932
0.33822014
0.34877478
0.36242774
0.37884981
0.39802079
0.42027728
0.44610805
0.47598172
0.51026439
0.5492064
0.59296422
0.64163222
0.69527116
0.75392877
0.81765248
0.88649608
0.96052225
1.0398027
1.1244169
1.21445
1.3099907
1.411129
1.5179536
1.6305499
1.7489981
1.8733706
2.0037305
2.1401296
2.282607
2.4311871
2.5858785
2.7466728
2.9135432
3.0864436
3.2653081
3.45005
3.6405616
3.8367137
4.0383554
4.2453143
4.4573965
4.674387
4.89605
5.1221299
5.3523516
5.5864219
5.8240302
6.0648498
6.3085392
6.5547439
6.8030973
7.0532229
7.3047356
7.5572439
7.8103515
-0.048762014
0.19784577
0.29094265
0.32030974
0.33032922
0.3382201
0.34877477
0.36242773
0.37884979
0.39802076
0.42027724
0.44610801
0.47598169
0.51026436
0.54920638
0.59296421
0.64163221
0.69527115
0.75392876
0.81765247
0.88649606
0.96052224
1.0398027
1.1244169
1.21445
1.3099907
1.411129
1.5179535
1.6305499
1.7489981
1.8733706
2.0037304
2.1401296
2.282607
2.4311871
2.5858785
2.7466728
2.9135431
3.0864436
3.2653081
3.45005
3.6405616
3.8367137
4.0383554
4.2453143
4.4573965
4.674387
4.89605
5.1221299
5.3523516
5.5864219
5.8240302
6.0648498
6.3085393
6.554744
6.8030974
7.0532229
7.3047356
7.5572439
7.8103515
)
;
    }
    front
    {
        type            cyclic;
        value           nonuniform 0();
    }
    back
    {
        type            cyclic;
        value           nonuniform 0();
    }
    procBoundary0to1
    {
        type            processor;
        value           nonuniform List<scalar> 
240
(
-4.6291021e-09
2.300152e-09
2.6368043e-09
4.4992177e-09
-1.8948955e-08
-9.5053324e-10
1.6998839e-09
2.2328728e-09
-1.6798404e-08
-2.3470189e-09
1.4713671e-09
1.8129864e-09
-1.2874579e-08
-2.5849323e-09
1.3795041e-09
1.907559e-09
-9.2956412e-09
-2.4250247e-09
1.2381304e-09
2.0450383e-09
-6.57904e-09
-2.0488115e-09
9.6133829e-10
1.9782885e-09
-4.7048557e-09
-1.5302209e-09
7.0604441e-10
1.8002936e-09
-3.3810941e-09
-1.1241563e-09
5.0679481e-10
1.5751003e-09
-2.4348967e-09
-8.3877282e-10
3.6399052e-10
1.3445131e-09
-1.755726e-09
-6.2161102e-10
2.652253e-10
1.1302436e-09
-1.2714238e-09
-4.6892145e-10
1.9611523e-10
9.4040838e-10
-9.2825872e-10
-3.6887472e-10
1.4552923e-10
7.7616866e-10
-6.8579865e-10
-3.1067516e-10
1.2036864e-10
6.3580313e-10
-5.1466244e-10
-2.6514273e-10
1.1152531e-10
5.1683574e-10
-3.9389042e-10
-2.2055786e-10
8.0897716e-11
4.1685132e-10
-3.0846066e-10
-1.8290543e-10
5.3988524e-11
3.3358709e-10
-2.4804405e-10
-1.5340094e-10
1.7405254e-11
2.6499139e-10
-2.0560175e-10
-1.3096754e-10
-8.8765811e-12
2.0916917e-10
-1.7503609e-10
-1.1629823e-10
-2.1843515e-11
1.6441183e-10
-1.5298538e-10
-1.058762e-10
-2.8348265e-11
1.2910879e-10
-1.3689428e-10
-9.8813849e-11
-3.1576049e-11
1.0175821e-10
-1.2483249e-10
-9.4334563e-11
-3.3164162e-11
8.0978229e-11
-1.1536301e-10
-9.1714154e-11
-3.352323e-11
6.5529289e-11
-1.0742715e-10
-9.0314023e-11
-3.2882021e-11
5.4316633e-11
-1.0029636e-10
-8.9616426e-11
-3.1512831e-11
4.6384136e-11
-9.3464529e-11
-8.9213068e-11
-2.958847e-11
4.0912235e-11
-8.6540718e-11
-8.8792321e-11
-2.7274184e-11
3.720902e-11
-7.9262101e-11
-8.812744e-11
-2.4693295e-11
3.4696649e-11
-7.1471555e-11
-8.7064279e-11
-2.2180405e-11
3.2897224e-11
-6.3096047e-11
-8.5507301e-11
-1.9561802e-11
3.1428196e-11
-5.4127048e-11
-8.3409777e-11
-1.6903594e-11
2.998252e-11
-4.4603808e-11
-8.0762152e-11
-1.4259283e-11
2.8317613e-11
-3.4591203e-11
-7.7580907e-11
-1.1684401e-11
2.6244149e-11
-2.4114252e-11
-7.3898952e-11
-9.2282018e-12
2.3617296e-11
-1.2790177e-11
-6.9757286e-11
-6.907684e-12
2.0330449e-11
-2.1630264e-12
-6.5199069e-11
-4.3990178e-12
1.6310768e-11
8.5927241e-12
-6.0271797e-11
-2.8515702e-12
1.1508088e-11
1.9339787e-11
-5.5023965e-11
-1.4087145e-12
5.892393e-12
2.995578e-11
-4.9501911e-11
-2.1600173e-13
-5.4732536e-13
4.0324927e-11
-4.3749776e-11
7.006644e-13
-7.8058605e-12
5.0337501e-11
-3.7810091e-11
1.325723e-12
-1.5863196e-11
5.9888912e-11
-3.1724504e-11
1.6507041e-12
-2.4764431e-11
6.88777e-11
-2.5535445e-11
1.6711092e-12
-3.427693e-11
7.7205245e-11
-1.9287387e-11
1.3860453e-12
-4.445678e-11
8.477414e-11
-1.3028116e-11
7.9724731e-13
-5.5229966e-11
9.1486508e-11
-6.8102921e-12
-9.0448122e-14
-6.6508889e-11
9.7243299e-11
-6.9191567e-13
-1.2681084e-12
-7.8189576e-11
1.0194432e-10
5.2592551e-12
-2.7195186e-12
-9.0149141e-11
1.0549054e-10
1.0972615e-11
-4.4153935e-12
-1.022419e-10
1.0778724e-10
1.6371375e-11
-6.3113852e-12
-1.1429576e-10
1.0875155e-10
2.1383362e-11
-8.3455626e-12
-1.2610905e-10
1.0832391e-10
2.5909299e-11
-1.0404483e-11
-1.3744842e-10
1.0648673e-10
2.9878857e-11
-1.2353636e-11
-1.480447e-10
1.0329065e-10
3.3211929e-11
-1.4006951e-11
-1.5759037e-10
9.8884975e-11
3.5833985e-11
-1.5156913e-11
-1.6574606e-10
9.355636e-11
3.7684015e-11
-1.5571777e-11
-1.721082e-10
8.7843992e-11
3.8696549e-11
-1.4866972e-11
-1.7591427e-10
8.2578187e-11
3.8439646e-11
-1.2643678e-11
-1.7565574e-10
7.771726e-11
3.4080637e-11
-9.9018254e-12
-1.7064088e-10
6.2393177e-11
1.7422005e-11
-1.0371214e-11
-1.4516613e-10
)
;
    }
    procBoundary0to1throughfront
    {
        type            processorCyclic;
        value           nonuniform List<scalar> 
240
(
-8.3753687e-09
-1.4457051e-08
-1.6541575e-08
-1.5756004e-08
-1.2390534e-08
-9.1570614e-09
-6.678838e-09
-4.867771e-09
-3.5442516e-09
-2.5769249e-09
-1.8919361e-09
-1.3918952e-09
-1.0451375e-09
-8.1524282e-10
-6.4214668e-10
-4.8130333e-10
-3.5737798e-10
-2.6052386e-10
-1.8497078e-10
-1.2560893e-10
-7.8905382e-11
-4.2316993e-11
-1.3966912e-11
7.5617454e-12
2.3385979e-11
3.4425606e-11
4.1392837e-11
4.4881242e-11
4.5407181e-11
4.3429783e-11
3.9363063e-11
3.3581896e-11
2.6426215e-11
1.8208253e-11
8.3830272e-12
-1.1598101e-12
-1.103352e-11
-2.1119666e-11
-3.1248823e-11
-4.1262148e-11
-5.1015935e-11
-6.0379903e-11
-6.9233402e-11
-7.7463575e-11
-8.4962122e-11
-9.1623545e-11
-9.7343397e-11
-1.020176e-10
-1.0554422e-10
-1.0782635e-10
-1.0877984e-10
-1.0834452e-10
-1.0650154e-10
-1.03301e-10
-9.889168e-11
-9.3559892e-11
-8.7845453e-11
-8.2578966e-11
-7.7718545e-11
-6.2395211e-11
3.027928e-09
-3.0187609e-10
-1.045375e-09
-2.1098071e-09
-2.28657e-09
-2.1819061e-09
-2.0006175e-09
-1.8010499e-09
-1.597044e-09
-1.3934375e-09
-1.1948339e-09
-1.0054302e-09
-8.2941661e-10
-6.7087745e-10
-5.3200241e-10
-4.1031588e-10
-3.0197167e-10
-2.0819936e-10
-1.5201679e-10
-1.1182026e-10
-6.8753725e-11
-3.3616131e-11
-5.2633712e-12
1.7289259e-11
3.4926122e-11
4.8424054e-11
5.8454799e-11
6.5592057e-11
7.0320535e-11
7.3046171e-11
7.4108827e-11
7.3792807e-11
7.2334876e-11
6.9931143e-11
6.6743016e-11
6.290077e-11
5.8514656e-11
5.3677982e-11
4.8469813e-11
4.2958319e-11
3.7203487e-11
3.1260287e-11
2.5180872e-11
1.9017214e-11
1.2822818e-11
6.6546353e-12
5.7430476e-13
-5.347783e-12
-1.1039186e-11
-1.6421544e-11
-2.1420767e-11
-2.5938013e-11
-2.9900436e-11
-3.3228473e-11
-3.584724e-11
-3.7695161e-11
-3.8706397e-11
-3.8448465e-11
-3.4087683e-11
-1.7425596e-11
-2.0437273e-09
-5.5413266e-09
-6.2851947e-09
-5.8900292e-09
-5.0843503e-09
-4.1716777e-09
-3.3721263e-09
-2.7231421e-09
-2.2111148e-09
-1.804833e-09
-1.4788393e-09
-1.2127616e-09
-9.9239473e-10
-8.0816593e-10
-6.5358785e-10
-5.2374244e-10
-4.1455152e-10
-3.2291312e-10
-2.457551e-10
-1.8028713e-10
-1.3119361e-10
-1.039348e-10
-7.5549106e-11
-5.3304295e-11
-3.6152603e-11
-2.3211946e-11
-1.3655762e-11
-6.7697243e-12
-1.9724343e-12
1.1478752e-12
2.9531336e-12
3.7584842e-12
3.8360425e-12
3.4169798e-12
2.6971656e-12
1.428117e-12
4.7069076e-13
-3.5422112e-13
-1.0724418e-12
-1.6367105e-12
-2.0037797e-12
-2.1413833e-12
-2.0263357e-12
-1.6436346e-12
-9.8469513e-13
-4.6398435e-14
1.1675958e-12
2.6452498e-12
4.3602138e-12
6.2701861e-12
8.3144505e-12
1.0381e-11
1.2335723e-11
1.3993298e-11
1.5146439e-11
1.556388e-11
1.4861099e-11
1.2639275e-11
9.8982935e-12
1.0368826e-11
5.7392924e-10
-4.5084023e-09
-6.6388765e-09
-7.2837929e-09
-7.0966422e-09
-6.4394562e-09
-5.6358661e-09
-4.8199866e-09
-4.054727e-09
-3.3690963e-09
-2.7719305e-09
-2.2613807e-09
-1.8305369e-09
-1.470648e-09
-1.1727852e-09
-9.2850904e-10
-7.2996011e-10
-5.7013304e-10
-4.4281935e-10
-3.4251794e-10
-2.6439381e-10
-2.0426076e-10
-1.5856516e-10
-1.2427463e-10
-9.8839671e-11
-8.0156254e-11
-6.6518991e-11
-5.6564573e-11
-4.9213327e-11
-4.3615426e-11
-3.9108086e-11
-3.5174775e-11
-3.1418485e-11
-2.7539053e-11
-2.3314796e-11
-1.8589067e-11
-1.3251128e-11
-7.2277241e-12
-4.7599803e-13
7.0224704e-12
1.5267953e-11
2.4307405e-11
3.3928877e-11
4.4193557e-11
5.5031955e-11
6.6360599e-11
7.8079125e-11
9.0067141e-11
1.021812e-10
1.1425091e-10
1.2607611e-10
1.3742411e-10
1.4802659e-10
1.5757653e-10
1.6573528e-10
1.720993e-10
1.7590675e-10
1.7564936e-10
1.7063587e-10
1.4516377e-10
)
;
    }
}


// ************************************************************************* //
