/*--------------------------------*- C++ -*----------------------------------*\
| =========                 |                                                 |
| \\      /  F ield         | OpenFOAM: The Open Source CFD Toolbox           |
|  \\    /   O peration     | Version:  3.0.1                                 |
|   \\  /    A nd           | Web:      www.OpenFOAM.org                      |
|    \\/     M anipulation  |                                                 |
\*---------------------------------------------------------------------------*/
FoamFile
{
    version     2.0;
    format      ascii;
    class       volScalarField;
    location    "100";
    object      p;
}
// * * * * * * * * * * * * * * * * * * * * * * * * * * * * * * * * * * * * * //

dimensions      [0 2 -2 0 0 0 0];

internalField   nonuniform List<scalar> 
480
(
-5.676406e-08
-5.8405885e-08
-1.3425718e-08
-2.1939426e-08
-6.4764587e-08
-6.0288923e-08
-1.1763785e-08
-1.6962726e-08
-5.7548401e-08
-5.5493343e-08
-1.4061872e-08
-1.5049339e-08
-4.5509566e-08
-4.7686994e-08
-1.9820344e-08
-1.7527381e-08
-3.6191566e-08
-3.9609695e-08
-2.5646851e-08
-2.1744283e-08
-3.1168511e-08
-3.3910026e-08
-2.9110899e-08
-2.4963469e-08
-2.9162176e-08
-3.0621216e-08
-3.1080083e-08
-2.7237579e-08
-2.9066679e-08
-2.9266343e-08
-3.2516921e-08
-2.9035845e-08
-3.0120647e-08
-2.9365278e-08
-3.3963085e-08
-3.0710818e-08
-3.182883e-08
-3.0501026e-08
-3.5606167e-08
-3.2451684e-08
-3.3911063e-08
-3.2338968e-08
-3.7429594e-08
-3.431861e-08
-3.6212386e-08
-3.4622094e-08
-3.9332397e-08
-3.6288916e-08
-3.8638155e-08
-3.7160089e-08
-4.1199268e-08
-3.8294643e-08
-4.1116874e-08
-3.9809753e-08
-4.2931614e-08
-4.0249477e-08
-4.3583535e-08
-4.2462228e-08
-4.4455974e-08
-4.2065669e-08
-4.5977811e-08
-4.5037613e-08
-4.5720707e-08
-4.3663823e-08
-4.8250738e-08
-4.747927e-08
-4.6693468e-08
-4.4980122e-08
-5.0361722e-08
-4.9751911e-08
-4.7347889e-08
-4.5950195e-08
-5.2292158e-08
-5.1840413e-08
-4.7667946e-08
-4.6539198e-08
-5.4036323e-08
-5.3748625e-08
-4.7646059e-08
-4.6727114e-08
-5.5608705e-08
-5.5498058e-08
-4.728492e-08
-4.650649e-08
-5.7041175e-08
-5.7125691e-08
-4.6591664e-08
-4.5881093e-08
-5.8379202e-08
-5.8681285e-08
-4.5581e-08
-4.4863727e-08
-5.9677763e-08
-6.0224219e-08
-4.4273914e-08
-4.3473664e-08
-6.0997119e-08
-6.1820058e-08
-4.2696189e-08
-4.1734053e-08
-6.2398714e-08
-6.3537111e-08
-4.0876965e-08
-3.9669538e-08
-6.3941366e-08
-6.5443145e-08
-3.8847427e-08
-3.7304314e-08
-6.5677894e-08
-6.760237e-08
-3.6639761e-08
-3.4660732e-08
-6.7652281e-08
-7.0072782e-08
-3.4286495e-08
-3.175854e-08
-6.9897395e-08
-7.2903856e-08
-3.1820223e-08
-2.8614751e-08
-7.2433251e-08
-7.6134602e-08
-2.9273703e-08
-2.5244121e-08
-7.5265811e-08
-7.9791924e-08
-2.668024e-08
-2.166016e-08
-7.838633e-08
-8.3889271e-08
-2.4074221e-08
-1.7876572e-08
-8.1771241e-08
-8.8425538e-08
-2.1491704e-08
-1.3909024e-08
-8.5382592e-08
-9.3384218e-08
-1.8970858e-08
-9.7770885e-09
-8.9169043e-08
-9.8732836e-08
-1.6552298e-08
-5.5062338e-09
-9.3067447e-08
-1.044227e-07
-1.4278933e-08
-1.1296756e-09
-9.7004996e-08
-1.1038909e-07
-1.2195442e-08
3.3100685e-09
-1.009019e-07
-1.1655191e-07
-1.0347324e-08
7.7601069e-09
-1.0467454e-07
-1.2281707e-07
-8.7795171e-09
1.2156761e-08
-1.0823897e-07
-1.2907852e-07
-7.5346754e-09
1.6425982e-08
-1.1151455e-07
-1.3522123e-07
-6.6512406e-09
2.0484727e-08
-1.1442764e-07
-1.4112504e-07
-6.1614671e-09
2.4243407e-08
-1.1691496e-07
-1.4666942e-07
-6.0895849e-09
2.7609437e-08
-1.1892646e-07
-1.5173901e-07
-6.4502677e-09
3.0491859e-08
-1.2042753e-07
-1.5622992e-07
-7.247512e-09
3.2806965e-08
-1.2140037e-07
-1.6005629e-07
-8.4739201e-09
3.4484731e-08
-1.2184463e-07
-1.6315704e-07
-1.0110248e-08
3.5475886e-08
-1.2177737e-07
-1.6550237e-07
-1.2124913e-08
3.5759386e-08
-1.2123281e-07
-1.6709962e-07
-1.4473011e-08
3.534998e-08
-1.2026236e-07
-1.6799798e-07
-1.7094276e-08
3.4305395e-08
-1.1893559e-07
-1.6829282e-07
-1.9909449e-08
3.2733366e-08
-1.1734329e-07
-1.6812841e-07
-2.2814336e-08
3.0797753e-08
-1.1560356e-07
-1.6770231e-07
-2.5671226e-08
2.8725323e-08
-1.1386893e-07
-1.6726646e-07
-2.8300802e-08
2.6807476e-08
-1.1232633e-07
-1.6709993e-07
-3.0485446e-08
2.5370048e-08
-1.1119937e-07
-1.6746922e-07
-3.1980186e-08
2.4724426e-08
-1.1085751e-07
-1.6887854e-07
-3.2422697e-08
2.5400802e-08
-1.1208708e-07
-1.7294933e-07
-3.106032e-08
2.9006021e-08
-1.1558239e-07
-1.8160792e-07
-2.7122675e-08
3.7365278e-08
-5.5957238e-08
-4.8754227e-08
-1.0972697e-08
-1.7927498e-08
-5.6710213e-08
-5.4858516e-08
-8.3611648e-09
-1.2448084e-08
-5.3320971e-08
-5.4410571e-08
-9.648739e-09
-1.1922926e-08
-4.5963919e-08
-5.0090278e-08
-1.5369307e-08
-1.5826687e-08
-3.8451152e-08
-4.4224482e-08
-2.1610447e-08
-2.1456845e-08
-3.3469574e-08
-3.9593835e-08
-2.5925526e-08
-2.6150173e-08
-3.0699827e-08
-3.6495731e-08
-2.8930401e-08
-2.9794929e-08
-2.9589092e-08
-3.4788761e-08
-3.127376e-08
-3.2672814e-08
-2.9685575e-08
-3.4260498e-08
-3.3372131e-08
-3.5048613e-08
-3.0672575e-08
-3.4676418e-08
-3.5406012e-08
-3.7110241e-08
-3.2312258e-08
-3.5811112e-08
-3.7416237e-08
-3.897679e-08
-3.4418885e-08
-3.7462762e-08
-3.9375946e-08
-4.0708459e-08
-3.6838308e-08
-3.9455037e-08
-4.1234387e-08
-4.2320002e-08
-3.94359e-08
-4.1642111e-08
-4.2939622e-08
-4.3795538e-08
-4.2094215e-08
-4.3909106e-08
-4.4445636e-08
-4.5100888e-08
-4.4711216e-08
-4.6163333e-08
-4.5711451e-08
-4.6192901e-08
-4.7206855e-08
-4.8339671e-08
-4.6703006e-08
-4.7025394e-08
-4.9525624e-08
-5.0393956e-08
-4.7395135e-08
-4.7568027e-08
-5.1633673e-08
-5.2303501e-08
-4.7769352e-08
-4.7789534e-08
-5.3525719e-08
-5.4066232e-08
-4.7814974e-08
-4.7667386e-08
-5.5216858e-08
-5.5698815e-08
-4.7527298e-08
-4.7190968e-08
-5.6739704e-08
-5.7234321e-08
-4.6912863e-08
-4.6360192e-08
-5.8140788e-08
-5.8719199e-08
-4.5985966e-08
-4.5183592e-08
-5.9476346e-08
-6.0209886e-08
-4.4767382e-08
-4.3676015e-08
-6.0807939e-08
-6.1769275e-08
-4.3282948e-08
-4.1856196e-08
-6.2198285e-08
-6.3463222e-08
-4.1561982e-08
-3.974449e-08
-6.3707483e-08
-6.535725e-08
-3.9635812e-08
-3.7360987e-08
-6.538977e-08
-6.7513551e-08
-3.753662e-08
-3.4724124e-08
-6.7290777e-08
-6.9988347e-08
-3.5296651e-08
-3.1849903e-08
-6.9445362e-08
-7.2829604e-08
-3.2947869e-08
-2.8751701e-08
-7.1875977e-08
-7.6075097e-08
-3.0521975e-08
-2.5440682e-08
-7.4591576e-08
-7.9750782e-08
-2.8050726e-08
-2.1926725e-08
-7.7587031e-08
-8.3869446e-08
-2.5566468e-08
-1.8219798e-08
-8.0843065e-08
-8.8429617e-08
-2.3102683e-08
-1.4331656e-08
-8.4326692e-08
-9.3414719e-08
-2.0694527e-08
-1.027775e-08
-8.799218e-08
-9.879251e-08
-1.8379011e-08
-6.0791914e-09
-9.1782537e-08
-1.0451485e-07
-1.6195053e-08
-1.7646158e-09
-9.5631512e-08
-1.105179e-07
-1.4183086e-08
2.6282078e-09
-9.9466064e-08
-1.1672279e-07
-1.2384274e-08
7.051222e-09
-1.0320924e-07
-1.2303701e-07
-1.0839363e-08
1.1445543e-08
-1.0678336e-07
-1.2935643e-07
-9.5872304e-09
1.5741716e-08
-1.1011329e-07
-1.3556832e-07
-8.6632638e-09
1.9860895e-08
-1.131297e-07
-1.4155508e-07
-8.097717e-09
2.3717064e-08
-1.1577202e-07
-1.4719893e-07
-7.9142025e-09
2.722034e-08
-1.1799094e-07
-1.5238742e-07
-8.1284617e-09
3.0281338e-08
-1.1975018e-07
-1.5701937e-07
-8.747484e-09
3.281653e-08
-1.2102766e-07
-1.6101126e-07
-9.7689432e-09
3.4754443e-08
-1.2181587e-07
-1.6430364e-07
-1.1180765e-08
3.6042511e-08
-1.221218e-07
-1.6686709e-07
-1.2960489e-08
3.665438e-08
-1.2196686e-07
-1.6870758e-07
-1.5073934e-08
3.6597367e-08
-1.2138718e-07
-1.6987063e-07
-1.7472576e-08
3.5919606e-08
-1.2043528e-07
-1.7044484e-07
-2.0089082e-08
3.4717066e-08
-1.1918407e-07
-1.705641e-07
-2.2830331e-08
3.3139856e-08
-1.1773451e-07
-1.7041168e-07
-2.5567758e-08
3.139932e-08
-1.1622478e-07
-1.702213e-07
-2.8128591e-08
2.9770339e-08
-1.1483317e-07
-1.7025175e-07
-3.0299286e-08
2.8563e-08
-1.1378393e-07
-1.7075412e-07
-3.183703e-08
2.8080765e-08
-1.1345842e-07
-1.722358e-07
-3.2388074e-08
2.8866513e-08
-1.1466593e-07
-1.7634123e-07
-3.1243665e-08
3.2561356e-08
-1.1810948e-07
-1.8495875e-07
-2.7870814e-08
4.0964782e-08
)
;

boundaryField
{
    movingWall
    {
        type            zeroGradient;
    }
    CPLReceiveMD
    {
        type            zeroGradient;
    }
    streamwiseIn
    {
        type            cyclic;
    }
    streamwiseOut
    {
        type            cyclic;
    }
    front
    {
        type            cyclic;
    }
    back
    {
        type            cyclic;
    }
    procBoundary0to1
    {
        type            processor;
        value           nonuniform List<scalar> 
240
(
-4.7984041e-08
-4.4598195e-08
-9.9786391e-09
-6.7620148e-09
-4.8597595e-08
-4.9007085e-08
-9.0211227e-09
-4.0994193e-09
-4.6406949e-08
-4.6901474e-08
-1.145129e-08
-4.9749891e-09
-4.0231866e-08
-4.1779259e-08
-1.7892122e-08
-1.0275512e-08
-3.3965e-08
-3.5784513e-08
-2.4407439e-08
-1.687454e-08
-3.0470456e-08
-3.1632404e-08
-2.8468347e-08
-2.192235e-08
-2.9259342e-08
-2.9409737e-08
-3.0823666e-08
-2.5496087e-08
-2.9534797e-08
-2.875267e-08
-3.2517923e-08
-2.8162119e-08
-3.071199e-08
-2.9274417e-08
-3.4113069e-08
-3.0384461e-08
-3.2414734e-08
-3.0645193e-08
-3.5827752e-08
-3.24501e-08
-3.443383e-08
-3.260058e-08
-3.7673718e-08
-3.4494128e-08
-3.6652925e-08
-3.4928381e-08
-3.9570538e-08
-3.654801e-08
-3.8996619e-08
-3.7467797e-08
-4.1416621e-08
-3.8580796e-08
-4.1401867e-08
-4.0096128e-08
-4.3121903e-08
-4.0530406e-08
-4.380595e-08
-4.2716465e-08
-4.4617428e-08
-4.2324527e-08
-4.6151647e-08
-4.5255386e-08
-4.585708e-08
-4.3893113e-08
-4.8385118e-08
-4.7661479e-08
-4.6806385e-08
-4.5173983e-08
-5.0465339e-08
-4.9901784e-08
-4.7440524e-08
-4.6112144e-08
-5.2371734e-08
-5.1962134e-08
-4.774345e-08
-4.6672609e-08
-5.4097528e-08
-5.3846537e-08
-4.7707024e-08
-4.6835799e-08
-5.5655917e-08
-5.5576222e-08
-4.7333525e-08
-4.6594201e-08
-5.7077692e-08
-5.7187701e-08
-4.6630225e-08
-4.5951313e-08
-5.8407505e-08
-5.8730218e-08
-4.5611479e-08
-4.4919556e-08
-5.9699723e-08
-6.0262645e-08
-4.4297916e-08
-4.351778e-08
-6.1014159e-08
-6.1850098e-08
-4.2715016e-08
-4.1768715e-08
-6.2411922e-08
-6.3560494e-08
-4.0891674e-08
-3.9696628e-08
-6.3951584e-08
-6.5461268e-08
-3.8858868e-08
-3.7325378e-08
-6.5685775e-08
-6.7616357e-08
-3.6648619e-08
-3.4677032e-08
-6.7658336e-08
-7.0083532e-08
-3.429332e-08
-3.1771093e-08
-6.9902028e-08
-7.2912084e-08
-3.1825455e-08
-2.8624374e-08
-7.2436777e-08
-7.6140872e-08
-2.9277693e-08
-2.5251465e-08
-7.5268479e-08
-7.9796682e-08
-2.6683267e-08
-2.1665739e-08
-7.8388338e-08
-8.3892866e-08
-2.4076505e-08
-1.7880792e-08
-8.1772743e-08
-8.8428243e-08
-2.1493416e-08
-1.3912201e-08
-8.5383707e-08
-9.3386244e-08
-1.8972133e-08
-9.7794711e-09
-8.9169865e-08
-9.8734346e-08
-1.6553243e-08
-5.5080129e-09
-9.3068048e-08
-1.0442382e-07
-1.4279628e-08
-1.1309984e-09
-9.7005432e-08
-1.1038992e-07
-1.219595e-08
3.3090891e-09
-1.0090222e-07
-1.1655252e-07
-1.0347693e-08
7.7593847e-09
-1.0467477e-07
-1.2281751e-07
-8.7797828e-09
1.2156231e-08
-1.0823913e-07
-1.2907884e-07
-7.5348652e-09
1.6425594e-08
-1.1151466e-07
-1.3522147e-07
-6.651375e-09
2.0484444e-08
-1.1442772e-07
-1.4112522e-07
-6.1615613e-09
2.4243202e-08
-1.1691501e-07
-1.4666954e-07
-6.0896502e-09
2.7609288e-08
-1.1892649e-07
-1.517391e-07
-6.4503125e-09
3.0491752e-08
-1.2042755e-07
-1.5622998e-07
-7.2475422e-09
3.2806888e-08
-1.2140038e-07
-1.6005633e-07
-8.4739401e-09
3.4484675e-08
-1.2184464e-07
-1.6315707e-07
-1.011026e-08
3.5475846e-08
-1.2177737e-07
-1.655024e-07
-1.2124921e-08
3.5759358e-08
-1.2123281e-07
-1.6709963e-07
-1.4473016e-08
3.534996e-08
-1.2026236e-07
-1.6799799e-07
-1.7094279e-08
3.4305381e-08
-1.1893559e-07
-1.6829283e-07
-1.9909451e-08
3.2733356e-08
-1.1734329e-07
-1.6812841e-07
-2.2814336e-08
3.0797746e-08
-1.1560356e-07
-1.6770231e-07
-2.5671226e-08
2.8725318e-08
-1.1386893e-07
-1.6726646e-07
-2.8300803e-08
2.6807473e-08
-1.1232633e-07
-1.6709993e-07
-3.0485446e-08
2.5370045e-08
-1.1119937e-07
-1.6746922e-07
-3.1980186e-08
2.4724424e-08
-1.1085751e-07
-1.6887854e-07
-3.2422697e-08
2.54008e-08
-1.1208708e-07
-1.7294933e-07
-3.106032e-08
2.9006019e-08
-1.1558239e-07
-1.8160792e-07
-2.7122675e-08
3.7365277e-08
)
;
    }
    procBoundary0to1throughfront
    {
        type            processorCyclic;
        value           nonuniform List<scalar> 
240
(
-5.6793279e-08
-5.725757e-08
-5.3653322e-08
-4.6078494e-08
-3.8343684e-08
-3.3193772e-08
-3.033136e-08
-2.919251e-08
-2.9303834e-08
-3.0328135e-08
-3.2012903e-08
-3.4163718e-08
-3.662263e-08
-3.925384e-08
-4.1939981e-08
-4.4580632e-08
-4.7095624e-08
-4.9431703e-08
-5.155432e-08
-5.3458963e-08
-5.5161069e-08
-5.6693428e-08
-5.8102714e-08
-5.9445282e-08
-6.0782809e-08
-6.2178128e-08
-6.3691451e-08
-6.5377123e-08
-6.7280882e-08
-6.943768e-08
-7.187006e-08
-7.4587052e-08
-7.7583598e-08
-8.0840479e-08
-8.4324757e-08
-8.7990741e-08
-9.1781475e-08
-9.5630733e-08
-9.9465497e-08
-1.0320883e-07
-1.0678307e-07
-1.1011308e-07
-1.1312955e-07
-1.1577192e-07
-1.1799086e-07
-1.1975013e-07
-1.2102762e-07
-1.2181584e-07
-1.2212179e-07
-1.2196685e-07
-1.2138717e-07
-1.2043527e-07
-1.1918407e-07
-1.1773451e-07
-1.1622478e-07
-1.1483317e-07
-1.1378393e-07
-1.1345842e-07
-1.1466593e-07
-1.1810948e-07
-4.845993e-08
-5.4446217e-08
-5.3982357e-08
-4.9675289e-08
-4.3722419e-08
-3.9083158e-08
-3.6049388e-08
-3.4440633e-08
-3.4018602e-08
-3.4536952e-08
-3.5752227e-08
-3.7455586e-08
-3.9474926e-08
-4.1672358e-08
-4.3939112e-08
-4.6192014e-08
-4.8364533e-08
-5.0413874e-08
-5.2318375e-08
-5.4076566e-08
-5.5705403e-08
-5.7238031e-08
-5.8720841e-08
-6.0210144e-08
-6.1768684e-08
-6.3462177e-08
-6.5356024e-08
-6.7512321e-08
-6.9987217e-08
-7.2828626e-08
-7.6074288e-08
-7.9750138e-08
-8.3868951e-08
-8.8429249e-08
-9.3414455e-08
-9.8792329e-08
-1.0451474e-07
-1.1051783e-07
-1.1672276e-07
-1.2303699e-07
-1.2935643e-07
-1.3556833e-07
-1.4155509e-07
-1.4719895e-07
-1.5238744e-07
-1.5701938e-07
-1.6101128e-07
-1.6430365e-07
-1.668671e-07
-1.6870759e-07
-1.6987064e-07
-1.7044484e-07
-1.7056411e-07
-1.7041168e-07
-1.7022131e-07
-1.7025175e-07
-1.7075413e-07
-1.722358e-07
-1.7634123e-07
-1.8495875e-07
-1.0226251e-08
-7.6108546e-09
-8.8434021e-09
-1.4529281e-08
-2.0780384e-08
-2.5139518e-08
-2.8229166e-08
-3.067318e-08
-3.2874017e-08
-3.5003901e-08
-3.709723e-08
-3.9125001e-08
-4.1037137e-08
-4.2783732e-08
-4.432131e-08
-4.5611657e-08
-4.6621758e-08
-4.7328583e-08
-4.7714639e-08
-4.7769817e-08
-4.7489811e-08
-4.6881812e-08
-4.5960377e-08
-4.4746432e-08
-4.3265923e-08
-4.1548256e-08
-3.9624839e-08
-3.7527921e-08
-3.5289813e-08
-3.2942539e-08
-3.0517856e-08
-2.8047569e-08
-2.5564068e-08
-2.3100873e-08
-2.0693172e-08
-1.8378005e-08
-1.6194312e-08
-1.4182545e-08
-1.2383882e-08
-1.0839082e-08
-9.5870298e-09
-8.6631223e-09
-8.0976182e-09
-7.9141343e-09
-8.1284152e-09
-8.7474528e-09
-9.7689226e-09
-1.1180751e-08
-1.2960481e-08
-1.5073929e-08
-1.7472572e-08
-2.008908e-08
-2.283033e-08
-2.5567757e-08
-2.8128591e-08
-3.0299286e-08
-3.183703e-08
-3.2388074e-08
-3.1243666e-08
-2.7870815e-08
-1.7265332e-08
-1.1837271e-08
-1.1427472e-08
-1.5373508e-08
-2.1038724e-08
-2.5790213e-08
-2.9516821e-08
-3.248626e-08
-3.4948203e-08
-3.7080568e-08
-3.8998249e-08
-4.0761787e-08
-4.2388975e-08
-4.3868042e-08
-4.516882e-08
-4.6251534e-08
-4.7074389e-08
-4.7608514e-08
-4.7821739e-08
-4.7692154e-08
-4.7209448e-08
-4.6373612e-08
-4.5193104e-08
-4.3682613e-08
-4.1860686e-08
-3.9747499e-08
-3.7362983e-08
-3.4725447e-08
-3.1850788e-08
-2.8752309e-08
-2.5441118e-08
-2.1927056e-08
-1.8220064e-08
-1.433188e-08
-1.0277947e-08
-6.0793666e-09
-1.764773e-09
2.6280671e-09
7.0510968e-09
1.1445433e-08
1.574162e-08
1.9860812e-08
2.3716993e-08
2.722028e-08
3.0281287e-08
3.2816488e-08
3.4754409e-08
3.6042483e-08
3.6654357e-08
3.6597348e-08
3.5919591e-08
3.4717054e-08
3.3139847e-08
3.1399313e-08
2.9770334e-08
2.8562995e-08
2.8080761e-08
2.886651e-08
3.2561352e-08
4.0964779e-08
)
;
    }
}


// ************************************************************************* //
