/*--------------------------------*- C++ -*----------------------------------*\
| =========                 |                                                 |
| \\      /  F ield         | OpenFOAM: The Open Source CFD Toolbox           |
|  \\    /   O peration     | Version:  3.0.1                                 |
|   \\  /    A nd           | Web:      www.OpenFOAM.org                      |
|    \\/     M anipulation  |                                                 |
\*---------------------------------------------------------------------------*/
FoamFile
{
    version     2.0;
    format      ascii;
    class       surfaceScalarField;
    location    "100";
    object      phi;
}
// * * * * * * * * * * * * * * * * * * * * * * * * * * * * * * * * * * * * * //

dimensions      [0 3 -1 0 0 0 0];

internalField   nonuniform List<scalar> 
1072
(
-0.13233507
2.3735483e-07
7.7535735e-09
-0.13233502
-3.7321702e-08
-2.1168854e-09
-0.13233508
8.4541055e-08
1.1916701e-09
7.368697e-08
-3.4763288e-10
-0.18187753
1.8006022e-07
1.3593021e-08
-0.18187751
-5.6856426e-08
7.7468319e-10
-0.18187754
8.3545394e-08
2.1026307e-09
9.9026702e-08
1.0597068e-09
-0.14984818
2.9525343e-07
1.3665457e-08
-0.14984832
8.1633618e-08
2.7087185e-09
-0.14984819
-7.194288e-08
1.5764726e-09
-2.6045352e-08
1.986833e-09
-0.100522
5.8526347e-07
1.2322337e-08
-0.1005223
3.9602873e-07
4.1458962e-09
-0.100522
-3.9284551e-07
1.246094e-09
-3.2764192e-07
2.3052447e-09
-0.056429443
9.5721173e-07
9.7318307e-09
-0.056429841
8.0141214e-07
4.8393844e-09
-0.056429453
-7.8675535e-07
1.0277798e-09
-7.2310927e-07
2.3640015e-09
-0.024386396
1.2662612e-06
7.0067548e-09
-0.02438675
1.156118e-06
4.6875059e-09
-0.024386416
-1.11279e-06
9.1276853e-10
-1.0709268e-06
2.3983903e-09
-0.0042239207
1.4347657e-06
4.6978634e-09
-0.0042241433
1.3732726e-06
4.1785377e-09
-0.0042239461
-1.2963443e-06
8.4757206e-10
-1.2843553e-06
2.4477465e-09
0.0067952602
1.4557299e-06
2.9267731e-09
0.0067951883
1.4362499e-06
3.5532033e-09
0.0067952372
-1.3318961e-06
7.817301e-10
-1.3467381e-06
2.4741884e-09
0.011763465
1.3640289e-06
1.6435631e-09
0.011763517
1.3747686e-06
2.9325506e-09
0.011763449
-1.254547e-06
6.983206e-10
-1.2874144e-06
2.4441482e-09
0.013206242
1.2076096e-06
7.6845139e-10
0.01320637
1.2362546e-06
2.371757e-09
0.013206233
-1.1118898e-06
5.9427822e-10
-1.1531622e-06
2.3441222e-09
0.012864306
1.0293744e-06
2.0752759e-10
0.012864468
1.0659189e-06
1.8927415e-09
0.012864304
-9.4634609e-07
4.7855463e-10
-9.8845474e-07
2.1807792e-09
0.011794678
8.5967834e-07
-1.2521373e-10
0.011794839
8.9739087e-07
1.4991556e-09
0.01179468
-7.8791596e-07
3.6434233e-10
-8.2625988e-07
1.9714479e-09
0.010566839
7.158869e-07
-3.0053781e-10
0.01056698
7.5109519e-07
1.1823643e-09
0.010566843
-6.5381612e-07
2.6296387e-10
-6.8648221e-07
1.7360617e-09
0.0094475839
6.0526546e-07
-3.7267063e-10
0.0094476937
6.3662311e-07
9.2898238e-10
0.0094475876
-5.5134359e-07
1.8186057e-10
-5.7835154e-07
1.4925324e-09
0.0085390067
5.2862714e-07
-3.8065606e-10
0.0085390834
5.5632065e-07
7.2641e-10
0.0085390098
-4.8145881e-07
1.2373101e-10
-5.0399082e-07
1.2546995e-09
0.0078681742
4.8344493e-07
-3.5294516e-10
0.0078682191
5.0857013e-07
5.6230965e-10
0.007868176
-4.4182785e-07
8.6758568e-11
-4.6164016e-07
1.0209358e-09
0.0074393368
4.6601626e-07
-3.1130951e-10
0.0074393528
4.9016404e-07
4.2873385e-10
0.0074393369
-4.2893051e-07
6.6656062e-11
-4.4810163e-07
8.6474955e-10
0.007261315
4.7272494e-07
-2.7023145e-10
0.0072613053
4.9776086e-07
3.2015767e-10
0.0072613133
-4.3929381e-07
6.1016284e-11
-4.5993955e-07
6.8152029e-10
0.0073604313
5.0054822e-07
-2.165365e-10
0.0073603986
5.2861693e-07
2.3243349e-10
0.0073604276
-4.7006484e-07
6.6616648e-11
-4.9441515e-07
5.2342068e-10
0.0077862081
5.4730655e-07
-1.7026705e-10
0.0077861542
5.808377e-07
1.6227086e-10
0.007786202
-5.1914632e-07
7.6484698e-11
-5.4965281e-07
3.9181513e-10
0.0086143047
6.1151981e-07
-1.3223329e-10
0.0086142306
6.533466e-07
1.06836e-10
0.0086142959
-5.8515316e-07
9.8698587e-11
-6.2460506e-07
2.8476621e-10
0.0099491792
6.9220283e-07
-1.0288534e-10
0.0099490853
7.4572031e-07
6.3772388e-11
0.009949167
-6.6716082e-07
1.2418771e-10
-7.1888557e-07
1.9981088e-10
0.011927686
7.8862518e-07
-8.2339974e-11
0.011927572
8.5797419e-07
3.1073944e-11
0.01192767
-7.6449596e-07
1.5243682e-10
-8.3255542e-07
1.3447015e-10
0.014724087
9.0007464e-07
-7.0492997e-11
0.014723953
9.9034383e-07
7.0246079e-12
0.014724066
-8.7650418e-07
1.8309903e-10
-9.6590481e-07
8.6398584e-11
0.018556559
1.0256408e-06
-6.7198768e-11
0.018556405
1.1430812e-06
-9.8522852e-12
0.018556531
-1.0023361e-06
2.1599683e-10
-1.1192482e-06
5.3428603e-11
0.023695097
1.1640229e-06
-7.2165876e-11
0.023694922
1.3162693e-06
-2.0833743e-11
0.023695061
-1.1407558e-06
2.5105e-10
-1.2927368e-06
3.3579335e-11
0.030470615
1.3133621e-06
-8.4872225e-11
0.03047042
1.5096517e-06
-2.7023709e-11
0.030470571
-1.2899719e-06
2.8820858e-10
-1.4861856e-06
2.5046279e-11
0.039285011
1.4711e-06
-1.0492786e-10
0.039284795
1.7224747e-06
-2.9368385e-11
0.039284955
-1.4474945e-06
3.2733944e-10
-1.6989127e-06
2.6178888e-11
0.050621878
1.6338658e-06
-1.3181681e-10
0.050621644
1.953337e-06
-2.8669133e-11
0.050621809
-1.6100191e-06
3.6837261e-10
-1.9295857e-06
3.5449361e-11
0.065057546
1.7973989e-06
-1.648704e-10
0.065057296
2.2000471e-06
-2.5587219e-11
0.065057462
-1.773348e-06
4.1103407e-10
-2.1760777e-06
5.1416694e-11
0.083272002
1.9565169e-06
-2.032356e-10
0.08327174
2.4594915e-06
-2.0652041e-11
0.083271901
-1.9323553e-06
4.5490271e-10
-2.4353325e-06
7.2688688e-11
0.1060592
2.1051413e-06
-2.4584532e-10
0.10605893
2.7275162e-06
-1.4266773e-11
0.10605908
-2.0810119e-06
4.9938947e-10
-2.7032457e-06
9.7883922e-11
0.13433617
2.2363935e-06
-2.9139548e-10
0.13433589
2.9988308e-06
-6.7121433e-12
0.13433603
-2.2124794e-06
5.4373536e-10
-2.9745676e-06
1.2559896e-10
0.16915019
2.3427733e-06
-3.3833121e-10
0.16914992
3.2669435e-06
1.8495592e-12
0.16915002
-2.3192893e-06
5.87034e-10
-3.2428382e-06
1.5438057e-10
0.21168336
2.4164302e-06
-3.8484705e-10
0.2116831
3.5241403e-06
1.1373503e-11
0.21168318
-2.3936122e-06
6.2808444e-10
-3.5003664e-06
1.827063e-10
0.26325368
2.449532e-06
-4.2890217e-10
0.26325344
3.7615218e-06
2.1931432e-11
0.26325347
-2.4276276e-06
6.656252e-10
-3.738267e-06
2.0897411e-10
0.32531174
2.4347269e-06
-4.682542e-10
0.32531153
3.969114e-06
3.3714404e-11
0.32531152
-2.4139855e-06
6.9820076e-10
-3.9465724e-06
2.3150608e-10
0.39943244
2.3656891e-06
-5.0051412e-10
0.39943227
4.1360711e-06
4.7036662e-11
0.3994322
-2.346352e-06
7.2426159e-10
-4.114435e-06
2.4856499e-10
0.48730069
2.2377207e-06
-5.232229e-10
0.48730057
4.2509871e-06
6.2339896e-11
0.48730044
-2.2200113e-06
7.4222752e-10
-4.23044e-06
2.5838473e-10
0.59069078
2.0483765e-06
-5.3394968e-10
0.59069072
4.3023348e-06
8.0196449e-11
0.59069053
-2.0324902e-06
7.5057056e-10
-4.2830437e-06
2.5921493e-10
0.71143881
1.7980584e-06
-5.3041026e-10
0.71143883
4.2790427e-06
1.0130921e-10
0.71143858
-1.7841526e-06
7.4791415e-10
-4.2611505e-06
2.4937946e-10
0.85140823
1.4905195e-06
-5.1060229e-10
0.85140833
4.1712167e-06
1.2650522e-10
0.85140803
-1.4787041e-06
7.3314585e-10
-4.1548356e-06
2.2734769e-10
1.0124485
1.1332089e-06
-4.7295253e-10
1.0124487
3.9710025e-06
1.5671954e-10
1.0124483
-1.1235367e-06
7.0553635e-10
-3.9562058e-06
1.9181652e-10
1.1963475
7.3738286e-07
-4.1646944e-10
1.1963478
3.6735648e-06
1.9296494e-10
1.1963474
-7.2984205e-07
6.6486012e-10
-3.6603807e-06
1.4180049e-10
1.4047788
3.1791884e-07
-3.4089075e-10
1.4047792
3.2781452e-06
2.3628325e-10
1.4047788
-3.1242676e-07
6.1150619e-10
-3.2665508e-06
7.6726343e-11
1.6392452
-1.0721943e-07
-2.4681541e-10
1.6392456
2.7891324e-06
2.8767095e-10
1.6392452
1.1081836e-07
5.4656531e-10
-2.7790502e-06
-3.4726784e-12
1.9010191
-5.1788787e-07
-1.3580924e-10
1.9010196
2.2170537e-06
3.479845e-10
1.9010192
5.19819e-07
4.718855e-10
-2.208352e-06
-9.8268379e-11
2.1910844
-8.9302249e-07
-1.0481022e-11
2.191085
1.579373e-06
4.1780663e-10
2.1910847
8.935703e-07
3.9007934e-10
-1.5718712e-06
-2.0646432e-10
2.5100796
-1.2121908e-06
1.2550755e-10
2.5100803
9.0095197e-07
4.9728189e-10
2.5100799
1.2116784e-06
3.0447093e-10
-8.9443365e-07
-3.2611707e-10
2.8582458
-1.4573162e-06
2.6747748e-10
2.8582465
2.140146e-07
5.8591852e-10
2.8582463
1.4560732e-06
2.189675e-10
-2.0824939e-07
-4.5452319e-10
3.2353829
-1.6144072e-06
4.0986714e-10
3.2353835
-4.4256652e-07
6.82362e-10
3.2353833
1.6127255e-06
1.3784709e-10
4.4779168e-07
-5.8818778e-10
3.6408147
-1.6750877e-06
5.4645928e-10
3.6408153
-1.024863e-06
7.8415743e-10
3.6408152
1.673166e-06
6.5456267e-11
1.0297052e-06
-7.2282372e-10
4.0733673
-1.6377123e-06
6.7074776e-10
4.0733678
-1.4865973e-06
8.8752569e-10
4.0733678
1.6355968e-06
5.8296132e-12
1.4911166e-06
-8.534195e-10
4.531361
-1.5078931e-06
7.7647938e-10
4.5313613
-1.7832558e-06
9.8724676e-10
4.5313614
1.5054262e-06
-3.7700417e-11
1.7873844e-06
-9.7435583e-10
5.0126172
-1.29838e-06
8.5842884e-10
5.0126173
-1.8780255e-06
1.076694e-09
5.0126175
1.295179e-06
-6.274927e-11
1.8815672e-06
-1.0796135e-09
5.5144825
-1.0284718e-06
9.1344905e-10
5.5144824
-1.7501854e-06
1.1484662e-09
5.5144827
1.0239756e-06
-6.783211e-11
1.7528762e-06
-1.1634541e-09
6.0338681
-7.234806e-07
9.4176586e-10
6.0338677
-1.4067946e-06
1.1969607e-09
6.033868
7.1712681e-07
-5.2162042e-11
1.4084601e-06
-1.2229894e-09
6.5673044
-4.1514107e-07
9.4772724e-10
6.5673039
-8.9833548e-07
1.2233238e-09
6.5673042
4.0675831e-07
-1.2614438e-11
8.9919542e-07
-1.2628428e-09
7.1110103
-1.4634031e-07
9.3968912e-10
7.1110097
-3.4400468e-07
1.2359491e-09
7.11101
1.3691278e-07
6.6809377e-11
3.4521865e-07
-1.2955006e-09
7.6609731
8.2192165e-10
7.6609727
1.0898368e-09
7.6609729
2.4332885e-10
-1.170716e-09
-0.13233506
-4.1815851e-08
-0.13233499
-1.2683668e-08
-0.13233505
5.5820979e-08
4.238028e-08
-0.18187747
-2.9655755e-08
-0.18187746
-2.1650054e-08
-0.18187746
5.1555221e-08
5.9346175e-08
-0.14984813
1.2376491e-07
-0.14984827
1.0279835e-07
-0.14984812
-9.6216001e-08
-5.7066509e-08
-0.10052197
4.4895576e-07
-0.10052227
4.0243689e-07
-0.10052196
-4.1325225e-07
-3.5076304e-07
-0.056429444
8.4759096e-07
-0.056429844
7.952397e-07
-0.056429445
-8.0279279e-07
-7.3817472e-07
-0.024386434
1.1777373e-06
-0.024386786
1.1407103e-06
-0.024386449
-1.1248935e-06
-1.0793019e-06
-0.0042239773
1.3639017e-06
-0.004224196
1.352611e-06
-0.004224
-1.3057422e-06
-1.2883745e-06
0.0067952023
1.4000892e-06
0.0067951347
1.4139755e-06
0.006795181
-1.3394865e-06
-1.3486322e-06
0.011763417
1.3214238e-06
0.011763472
1.3536037e-06
0.011763402
-1.2608499e-06
-1.2887616e-06
0.013206206
1.1758902e-06
0.013206337
1.2178592e-06
0.013206198
-1.1171165e-06
-1.1547906e-06
0.012864283
1.0064475e-06
0.012864446
1.0510562e-06
0.012864281
-9.5053968e-07
-9.9059564e-07
0.011794664
8.4360474e-07
0.011794826
8.8614217e-07
0.011794667
-7.9106856e-07
-8.2877644e-07
0.010566832
7.049774e-07
0.010566972
7.4315074e-07
0.010566836
-6.5593759e-07
-6.890774e-07
0.0094475805
5.9813161e-07
0.0094476901
6.3151119e-07
0.0094475848
-5.5248659e-07
-5.8071557e-07
0.0085390053
5.2418498e-07
0.0085390815
5.5351836e-07
0.0085390088
-4.8171478e-07
-5.0588189e-07
0.0078681735
4.8088034e-07
0.0078682178
5.0760997e-07
0.0078681755
-4.4131368e-07
-4.6293411e-07
0.007439336
4.6471347e-07
0.0074393514
4.9065204e-07
0.0074393363
-4.277749e-07
-4.4862966e-07
0.0072613137
4.7220539e-07
0.0072613036
4.9938605e-07
0.0072613121
-4.3762363e-07
-4.5974713e-07
0.0073604294
5.0052874e-07
0.0073603962
5.3114656e-07
0.0073604255
-4.6799338e-07
-4.9358793e-07
0.0077862054
5.4758369e-07
0.0077861511
5.8410258e-07
0.007786199
-5.1679507e-07
-5.4829797e-07
0.0086143011
6.119476e-07
0.0086142266
6.5722754e-07
0.0086142918
-5.825891e-07
-6.228378e-07
0.0099491744
6.9267562e-07
0.0099490802
7.5013456e-07
0.0099491617
-6.6443721e-07
-7.1682136e-07
0.01192768
7.8906534e-07
0.011927566
8.6286451e-07
0.011927663
-7.6165383e-07
-8.3030518e-07
0.01472408
9.0042448e-07
0.014723945
9.9567025e-07
0.014724057
-8.7357436e-07
-9.6357245e-07
0.01855655
1.0258574e-06
0.018556395
1.1488149e-06
0.018556521
-9.9934114e-07
-1.1169299e-06
0.023695085
1.164075e-06
0.02369491
1.3223875e-06
0.023695048
-1.1377116e-06
-1.2905212e-06
0.030470602
1.3132293e-06
0.030470406
1.5161342e-06
0.030470555
-1.2868896e-06
-1.484155e-06
0.039284994
1.4707721e-06
0.039284779
1.7293006e-06
0.039284936
-1.4443812e-06
-1.6971437e-06
0.050621858
1.6333428e-06
0.050621625
1.9604815e-06
0.050621787
-1.6068794e-06
-1.9281503e-06
0.065057523
1.7966916e-06
0.065057274
2.2074796e-06
0.065057436
-1.7701841e-06
-2.1750435e-06
0.083271975
1.9556477e-06
0.083271713
2.4671731e-06
0.083271871
-1.9291689e-06
-2.4347627e-06
0.10605917
2.1041452e-06
0.1060589
2.735398e-06
0.10605905
-2.0778047e-06
-2.7031984e-06
0.13433613
2.2353188e-06
0.13433586
3.0068525e-06
0.13433599
-2.2092546e-06
-2.9750943e-06
0.16915015
2.3416829e-06
0.16914988
3.2750324e-06
0.16914998
-2.3160524e-06
-3.2439815e-06
0.21168332
2.4154023e-06
0.21168306
3.5322108e-06
0.21168313
-2.3903739e-06
-3.5021575e-06
0.26325363
2.4486604e-06
0.26325339
3.7694756e-06
0.26325342
-2.4244047e-06
-3.7407222e-06
0.32531169
2.4341215e-06
0.32531148
3.9768411e-06
0.32531146
-2.4108033e-06
-3.9496891e-06
0.39943238
2.3654751e-06
0.39943221
4.143451e-06
0.39943214
-2.3432456e-06
-4.118188e-06
0.48730063
2.2380378e-06
0.48730051
4.2578916e-06
0.48730038
-2.2170274e-06
-4.2347775e-06
0.59069071
2.0493761e-06
0.59069066
4.3086308e-06
0.59069047
-2.0296879e-06
-4.2878837e-06
0.71143875
1.7998996e-06
0.71143877
4.2845967e-06
0.71143852
-1.7816034e-06
-4.2663791e-06
0.85140817
1.4933638e-06
0.85140827
4.1758999e-06
0.85140796
-1.4764906e-06
-4.1603058e-06
1.0124484
1.1372119e-06
1.0124486
3.9746967e-06
1.0124482
-1.1217494e-06
-3.9617396e-06
1.1963474
7.4268429e-07
1.1963477
3.6761701e-06
1.1963473
-7.2857416e-07
-3.6657733e-06
1.4047788
3.2462992e-07
1.4047792
3.2795874e-06
1.4047788
-3.1176719e-07
-3.2715791e-06
1.6392451
-9.9030908e-08
1.6392456
2.7893718e-06
1.6392452
1.107947e-07
-2.7834842e-06
1.901019
-5.0821403e-07
1.9010196
2.2160939e-06
1.9010192
5.1906258e-07
-2.2119712e-06
2.1910844
-8.8193278e-07
2.191085
1.577269e-06
2.1910846
8.9206992e-07
-1.5744842e-06
2.5100796
-1.1998483e-06
2.5100802
8.9781745e-07
2.5100799
1.2094742e-06
-8.9590132e-07
2.8582458
-1.4439906e-06
2.8582465
2.1002717e-07
2.8582463
1.4532684e-06
-2.0850988e-07
3.2353829
-1.6004811e-06
3.2353835
-4.4716319e-07
3.2353834
1.6094942e-06
4.4869756e-07
3.6408147
-1.6610522e-06
3.6408153
-1.0297608e-06
3.6408152
1.6697557e-06
1.0316116e-06
4.0733674
-1.6241462e-06
4.0733678
-1.4914308e-06
4.0733679
1.6323218e-06
1.4937179e-06
4.531361
-1.4954212e-06
4.5313613
-1.7876191e-06
4.5313615
1.5026518e-06
1.7902364e-06
5.0126173
-1.2876065e-06
5.0126174
-1.8815088e-06
5.0126176
1.2933026e-06
1.8841202e-06
5.5144826
-1.0198921e-06
5.5144825
-1.752458e-06
5.5144827
1.0234198e-06
1.7545737e-06
6.0338681
-7.1739296e-07
6.0338678
-1.4077886e-06
6.0338681
7.1838136e-07
1.4089682e-06
6.5673044
-4.1161641e-07
6.5673039
-8.9868378e-07
6.5673042
4.1058081e-07
8.9894586e-07
7.1110103
-1.4524936e-07
7.1110098
-3.4530103e-07
7.11101
1.4445973e-07
3.4581318e-07
7.6609731
7.6609727
7.6609729
)
;

boundaryField
{
    movingWall
    {
        type            calculated;
        value           uniform 0;
    }
    CPLReceiveMD
    {
        type            calculated;
        value           uniform 0;
    }
    streamwiseIn
    {
        type            cyclic;
        value           nonuniform List<scalar> 
120
(
0.13233515
0.18187758
0.14984807
0.10052172
0.056429077
0.024386081
0.0042237389
-0.0067952976
-0.01176339
-0.013206099
-0.012864139
-0.011794517
-0.010566702
-0.009447478
-0.0085389338
-0.007868132
-0.0074393218
-0.0072613238
-0.007360461
-0.0077862566
-0.0086143705
-0.0099492614
-0.011927784
-0.0147242
-0.018556686
-0.023695237
-0.030470766
-0.03928517
-0.050622043
-0.065057712
-0.083272164
-0.10605935
-0.1343363
-0.1691503
-0.21168344
-0.26325372
-0.32531173
-0.39943237
-0.48730057
-0.59069059
-0.71143857
-0.85140793
-1.0124481
-1.1963471
-1.4047784
-1.6392447
-1.9010187
-2.191084
-2.5100793
-2.8582456
-3.2353827
-3.6408146
-4.0733674
-4.5313611
-5.0126174
-5.5144828
-6.0338684
-6.5673047
-7.1110106
-7.6609732
0.13233511
0.18187746
0.14984798
0.10052164
0.056429046
0.0243861
0.0042237851
-0.0067952447
-0.011763343
-0.013206064
-0.012864116
-0.011794503
-0.010566694
-0.0094474744
-0.008538932
-0.0078681309
-0.0074393206
-0.0072613221
-0.0073604585
-0.0077862532
-0.0086143661
-0.0099492557
-0.011927777
-0.014724191
-0.018556675
-0.023695223
-0.03047075
-0.039285151
-0.05062202
-0.065057685
-0.083272133
-0.10605932
-0.13433626
-0.16915025
-0.21168339
-0.26325366
-0.32531167
-0.39943231
-0.4873005
-0.59069052
-0.71143849
-0.85140785
-1.012448
-1.196347
-1.4047784
-1.6392447
-1.9010186
-2.191084
-2.5100793
-2.8582456
-3.2353827
-3.6408146
-4.0733674
-4.5313612
-5.0126175
-5.5144829
-6.0338684
-6.5673048
-7.1110106
-7.6609732
)
;
    }
    streamwiseOut
    {
        type            cyclic;
        value           nonuniform List<scalar> 
120
(
-0.13233515
-0.18187758
-0.14984807
-0.10052172
-0.056429077
-0.024386081
-0.0042237389
0.0067952976
0.01176339
0.013206099
0.012864139
0.011794517
0.010566702
0.009447478
0.0085389338
0.007868132
0.0074393218
0.0072613238
0.007360461
0.0077862566
0.0086143705
0.0099492614
0.011927784
0.0147242
0.018556686
0.023695237
0.030470766
0.03928517
0.050622043
0.065057712
0.083272164
0.10605935
0.1343363
0.1691503
0.21168344
0.26325372
0.32531173
0.39943237
0.48730057
0.59069059
0.71143857
0.85140793
1.0124481
1.1963471
1.4047784
1.6392447
1.9010187
2.191084
2.5100793
2.8582456
3.2353827
3.6408146
4.0733674
4.5313611
5.0126174
5.5144828
6.0338684
6.5673047
7.1110106
7.6609732
-0.13233511
-0.18187746
-0.14984798
-0.10052164
-0.056429046
-0.0243861
-0.0042237851
0.0067952447
0.011763343
0.013206064
0.012864116
0.011794503
0.010566694
0.0094474744
0.008538932
0.0078681309
0.0074393206
0.0072613221
0.0073604585
0.0077862532
0.0086143661
0.0099492557
0.011927777
0.014724191
0.018556675
0.023695223
0.03047075
0.039285151
0.05062202
0.065057685
0.083272133
0.10605932
0.13433626
0.16915025
0.21168339
0.26325366
0.32531167
0.39943231
0.4873005
0.59069052
0.71143849
0.85140785
1.012448
1.196347
1.4047784
1.6392447
1.9010186
2.191084
2.5100793
2.8582456
3.2353827
3.6408146
4.0733674
4.5313612
5.0126175
5.5144829
6.0338684
6.5673048
7.1110106
7.6609732
)
;
    }
    front
    {
        type            cyclic;
        value           nonuniform 0();
    }
    back
    {
        type            cyclic;
        value           nonuniform 0();
    }
    procBoundary0to1
    {
        type            processor;
        value           nonuniform List<scalar> 
240
(
4.2032963e-09
-1.1502112e-09
6.7152762e-10
-4.129826e-09
1.0687134e-08
2.4382583e-10
2.1442107e-09
-2.0351378e-09
9.2542096e-09
1.5427839e-10
3.673517e-09
-5.8785222e-10
6.9230681e-09
-1.0324307e-09
3.6845144e-09
2.6730429e-11
4.8156142e-09
-1.3142049e-09
3.1278943e-09
1.2352445e-10
3.3238364e-09
-1.5109462e-09
2.237833e-09
-1.0332981e-10
2.4284863e-09
-1.5214162e-09
1.7888293e-09
-4.6001641e-10
1.940678e-09
-1.4026354e-09
1.2828912e-09
-8.0434424e-10
1.6788983e-09
-1.2203763e-09
8.8961781e-10
-1.0634504e-09
1.5110201e-09
-1.0216679e-09
6.1426501e-10
-1.2133283e-09
1.3687309e-09
-8.6137127e-10
4.35684e-10
-1.2615153e-09
1.2245118e-09
-6.9100291e-10
3.2469871e-10
-1.2292985e-09
1.0730503e-09
-5.4267411e-10
2.5499449e-10
-1.1411778e-09
9.188801e-10
-4.3315799e-10
2.0672069e-10
-1.0195061e-09
7.683627e-10
-3.2353828e-10
1.6711382e-10
-8.822341e-10
6.2880347e-10
-2.4722616e-10
1.3077749e-10
-7.45613e-10
5.1785493e-10
-1.84392e-10
9.5547576e-11
-6.2502384e-10
4.2766634e-10
-1.3244999e-10
5.9648864e-11
-4.929771e-10
3.3367349e-10
-8.9474135e-11
2.2663224e-11
-3.7881776e-10
2.5643688e-10
-5.4162562e-11
-4.4279839e-12
-2.8200487e-10
1.9550258e-10
-2.5551331e-11
-4.2616579e-11
-2.0187856e-10
1.4936102e-10
-2.9254355e-12
-8.1685277e-11
-1.3751742e-10
1.1652318e-10
1.4316688e-11
-1.2045289e-10
-8.7811256e-11
9.5674507e-11
2.6742391e-11
-1.5910207e-10
-5.1544873e-11
8.5700087e-11
3.4916387e-11
-1.9802084e-10
-2.7451676e-11
8.5660373e-11
3.9404384e-11
-2.3759805e-10
-1.4255138e-11
9.4738137e-11
4.0761966e-11
-2.7815008e-10
-1.0694516e-11
1.1215743e-10
3.9519021e-11
-3.1988038e-10
-1.5535341e-11
1.3712609e-10
3.6160236e-11
-3.6284472e-10
-2.7566023e-11
1.6877727e-10
3.1110209e-11
-4.0693612e-10
-4.5584615e-11
2.0611539e-10
2.472039e-11
-4.5186423e-10
-6.8378863e-11
2.4797116e-10
1.726103e-11
-4.9713707e-10
-9.4702359e-11
2.9296652e-10
8.9139949e-12
-5.4207215e-10
-1.2325271e-10
3.3949313e-10
-2.3180672e-13
-5.8600035e-10
-1.5265211e-10
3.8570676e-10
-1.0185946e-11
-6.2731974e-10
-1.8143428e-10
4.2953838e-10
-2.1060473e-11
-6.6506073e-10
-2.0803897e-10
4.6872494e-10
-3.3076249e-11
-6.9778508e-10
-2.3081933e-10
5.008623e-10
-4.6569546e-11
-7.2395625e-10
-2.4806119e-10
5.2348027e-10
-6.1998341e-11
-7.4200385e-10
-2.580155e-10
5.3413977e-10
-7.9946974e-11
-7.5040718e-10
-2.5894456e-10
5.3055053e-10
-1.0112718e-10
-7.4779516e-10
-2.4918288e-10
5.1070569e-10
-1.2637256e-10
-7.3305905e-10
-2.27205e-10
4.7302867e-10
-1.5662298e-10
-7.0547277e-10
-1.9171303e-10
4.165254e-10
-1.9289474e-10
-6.6481362e-10
-1.4172549e-10
3.409318e-10
-2.3623229e-10
-6.1147225e-10
-7.6672046e-11
2.4684547e-10
-2.8763404e-10
-5.4654059e-10
3.5120068e-12
1.3583114e-10
-3.4795806e-10
-4.7186751e-10
9.8296927e-11
1.0496895e-11
-4.1778785e-10
-3.9006626e-10
2.0648251e-10
-1.254993e-10
-4.9726874e-10
-3.0446139e-10
3.2613026e-10
-2.6747156e-10
-5.8590943e-10
-2.1896048e-10
4.5453287e-10
-4.098628e-10
-6.8235592e-10
-1.378419e-10
5.8819495e-10
-5.4645622e-10
-7.8415346e-10
-6.5452337e-11
7.2282908e-10
-6.7074558e-10
-8.875232e-10
-5.8266678e-12
8.5342365e-10
-7.7647783e-10
-9.8724533e-10
3.7702687e-11
9.7435914e-10
-8.5842774e-10
-1.0766934e-09
6.2751007e-11
1.0796164e-09
-9.1344841e-10
-1.148466e-09
6.7833729e-11
1.1634563e-09
-9.4176568e-10
-1.1969608e-09
5.2163653e-11
1.2229915e-09
-9.4772729e-10
-1.2233241e-09
1.2616031e-11
1.2628449e-09
-9.3968935e-10
-1.2359491e-09
-6.6807866e-11
1.2955023e-09
-8.2192221e-10
-1.0898367e-09
-2.4332773e-10
1.1707169e-09
)
;
    }
    procBoundary0to1throughfront
    {
        type            processorCyclic;
        value           nonuniform List<scalar> 
240
(
9.0447083e-09
1.5015238e-08
1.4786681e-08
1.3131031e-08
1.0273408e-08
7.3498104e-09
4.9079075e-09
3.0543102e-09
1.7222738e-09
8.1972744e-10
2.4329511e-10
-9.898345e-11
-2.8080585e-10
-3.5809814e-10
-3.7066428e-10
-3.4720383e-10
-3.1205735e-10
-2.8424628e-10
-2.2900143e-10
-1.8122917e-10
-1.4173608e-10
-1.1100504e-10
-8.9180664e-11
-7.6178291e-11
-7.1783718e-11
-7.5708635e-11
-8.7603219e-11
-1.0702547e-10
-1.3342058e-10
-1.6609002e-10
-2.0415748e-10
-2.4653762e-10
-2.9191176e-10
-3.3871338e-10
-3.8512777e-10
-4.2910672e-10
-4.6840199e-10
-5.0061994e-10
-5.2329791e-10
-5.340023e-10
-5.3044673e-10
-5.1062719e-10
-4.729693e-10
-4.1648052e-10
-3.4089788e-10
-2.468199e-10
-1.3581193e-10
-1.0482426e-11
1.2551019e-10
2.6747975e-10
4.0986902e-10
5.4646085e-10
6.7074918e-10
7.7648076e-10
8.5843018e-10
9.134502e-10
9.4176689e-10
9.4772832e-10
9.3969006e-10
8.2192202e-10
-3.4407873e-09
-3.5047722e-10
1.647908e-09
2.6080086e-09
3.7432751e-09
3.770113e-09
3.4462775e-09
3.0014352e-09
2.5282872e-09
2.0874166e-09
1.6985964e-09
1.3726003e-09
1.1010714e-09
8.7705229e-10
6.9524602e-10
5.4415193e-10
4.1850609e-10
3.1468562e-10
2.2975228e-10
1.6112709e-10
1.064677e-10
6.3730843e-11
3.1119837e-11
7.0482236e-12
-9.8876882e-12
-2.0927858e-11
-2.7161082e-11
-2.9529333e-11
-2.8836669e-11
-2.5748265e-11
-2.0798181e-11
-1.4393639e-11
-6.8183304e-12
1.7633965e-12
1.1305504e-11
2.1879144e-11
3.3675194e-11
4.7007991e-11
6.2319473e-11
8.0182326e-11
1.0129975e-10
1.2649915e-10
1.5671589e-10
1.9296301e-10
2.3628251e-10
2.8767101e-10
3.4798507e-10
4.1780744e-10
4.9728274e-10
5.8591933e-10
6.8236268e-10
7.8415816e-10
8.8752656e-10
9.8724791e-10
1.0766951e-09
1.1484672e-09
1.1969616e-09
1.2233245e-09
1.2359496e-09
1.0898372e-09
4.7168597e-10
1.4684801e-09
9.4528786e-10
6.8680857e-10
6.044703e-10
5.8331772e-10
5.9528985e-10
5.9505202e-10
5.6571808e-10
5.0424816e-10
4.2026915e-10
3.2846857e-10
2.421211e-10
1.7049984e-10
1.1801853e-10
8.4337985e-11
6.5626849e-11
6.0335015e-11
6.5223752e-11
6.8845564e-11
9.2435404e-11
1.1894342e-10
1.4806742e-10
1.7948711e-10
2.1303954e-10
2.486542e-10
2.8628914e-10
3.2587562e-10
3.6726564e-10
4.1020079e-10
4.5427902e-10
4.9892581e-10
5.4339311e-10
5.8698853e-10
6.2805795e-10
6.6561207e-10
6.9819734e-10
7.2426488e-10
7.4223512e-10
7.5058062e-10
7.479253e-10
7.3315671e-10
7.0554609e-10
6.6486869e-10
6.1151361e-10
5.4657171e-10
4.7189095e-10
3.9008388e-10
3.0447457e-10
2.1897038e-10
1.3784939e-10
6.5458051e-11
5.8308546e-12
-3.7699795e-11
-6.2749014e-11
-6.7831884e-11
-5.216197e-11
-1.2614787e-11
6.6808971e-11
2.4332887e-10
-2.7548693e-09
-8.7325351e-10
1.4371412e-10
6.6370063e-10
9.7491827e-10
1.2715321e-09
1.5675208e-09
1.809984e-09
1.9587432e-09
2.0000061e-09
1.9439174e-09
1.813062e-09
1.6331529e-09
1.4275751e-09
1.214825e-09
1.0076042e-09
8.3717769e-10
6.633674e-10
5.122864e-10
3.8528941e-10
2.8107122e-10
1.9777377e-10
1.3336471e-10
8.579527e-11
5.3084566e-11
3.336404e-11
2.4893726e-11
2.6058283e-11
3.5347873e-11
5.1329802e-11
7.2615124e-11
9.7823242e-11
1.2555053e-10
1.5434337e-10
1.8267893e-10
2.0895499e-10
2.3149361e-10
2.4855766e-10
2.5838124e-10
2.5921418e-10
2.4938061e-10
2.2735053e-10
1.9182024e-10
1.4180444e-10
7.6730133e-11
-3.4692838e-12
-9.8265499e-11
-2.0645941e-10
-3.2611307e-10
-4.5452e-10
-5.8818521e-10
-7.2282185e-10
-8.5341827e-10
-9.7435514e-10
-1.0796131e-09
-1.1634539e-09
-1.2229893e-09
-1.2628424e-09
-1.2954999e-09
-1.1707153e-09
)
;
    }
}


// ************************************************************************* //
