/*--------------------------------*- C++ -*----------------------------------*\
| =========                 |                                                 |
| \\      /  F ield         | OpenFOAM: The Open Source CFD Toolbox           |
|  \\    /   O peration     | Version:  3.0.x                                 |
|   \\  /    A nd           | Web:      www.OpenFOAM.org                      |
|    \\/     M anipulation  |                                                 |
\*---------------------------------------------------------------------------*/
FoamFile
{
    version     2.0;
    format      ascii;
    class       surfaceScalarField;
    location    "125";
    object      phi;
}
// * * * * * * * * * * * * * * * * * * * * * * * * * * * * * * * * * * * * * //

dimensions      [0 3 -1 0 0 0 0];

internalField   nonuniform List<scalar> 
2384
(
-0.17074804
-2.2688399e-07
-9.4779403e-09
-0.17074808
2.3074849e-08
3.9703544e-10
-0.17074803
-6.0676194e-08
-2.8276929e-09
-6.3538031e-08
-2.6273312e-09
-0.053354296
-2.3071291e-07
-1.0881056e-08
-0.053354242
-3.287214e-08
-1.9040024e-09
-0.053354296
8.7284659e-09
-4.3506037e-09
-3.0150281e-08
-5.8247671e-09
-0.065751526
-3.6826322e-07
-7.8820742e-09
-0.065751366
-1.9737593e-07
-2.715951e-09
-0.065751526
1.8974486e-07
-3.749806e-09
1.1521875e-07
-6.3143759e-09
-0.085353872
-6.2195775e-07
-6.6192981e-09
-0.085353603
-4.7821497e-07
-3.037577e-09
-0.085353865
4.7520406e-07
-3.0013767e-09
3.8096393e-07
-6.2657362e-09
-0.092954216
-8.7623438e-07
-5.079912e-09
-0.092953933
-7.6874153e-07
-3.1333793e-09
-0.092954197
7.5043626e-07
-2.0930324e-09
6.6146936e-07
-5.7290491e-09
-0.090111774
-9.9448237e-07
-3.6361544e-09
-0.090111614
-9.3083149e-07
-2.9586753e-09
-0.090111745
8.8326559e-07
-1.6160844e-09
8.1853793e-07
-4.9674263e-09
-0.080440182
-9.6190335e-07
-2.4431526e-09
-0.080440173
-9.3797297e-07
-2.59851e-09
-0.080440154
8.6166224e-07
-1.1758235e-09
8.2516806e-07
-4.1650395e-09
-0.067155209
-8.1259092e-07
-1.5295194e-09
-0.067155324
-8.187704e-07
-2.190557e-09
-0.067155187
7.2152734e-07
-8.4046939e-10
7.0924393e-07
-3.4098115e-09
-0.052791159
-5.9256799e-07
-8.9062816e-10
-0.052791354
-6.1814717e-07
-1.7967396e-09
-0.052791145
5.0991377e-07
-5.9386563e-10
5.1478679e-07
-2.7497606e-09
-0.039098816
-3.4584932e-07
-4.797055e-10
-0.039099047
-3.8093526e-07
-1.4478747e-09
-0.03909881
2.7125511e-07
-4.1875259e-10
2.8570615e-07
-2.2009352e-09
-0.027077854
-1.06752e-07
-1.6595467e-10
-0.027078086
-1.4336405e-07
-1.1509867e-09
-0.027077854
3.9970305e-08
-2.9685914e-10
5.7398983e-08
-1.7591744e-09
-0.017123898
1.0328138e-07
5.5301063e-11
-0.017124107
7.0742723e-08
-8.9482011e-10
-0.017123903
-1.6253305e-07
-2.1191084e-10
-1.4700283e-07
-1.4115775e-09
-0.0092180156
2.7500904e-07
2.079985e-10
-0.00921819
2.4990333e-07
-6.762662e-10
-0.009218023
-3.270817e-07
-1.517937e-10
-3.1651888e-07
-1.1422487e-09
-0.0030998794
4.0846261e-07
3.1096055e-10
-0.0031000177
3.9242464e-07
-4.9318836e-10
-0.003099888
-4.5374919e-07
-1.0851571e-10
-4.4977473e-07
-9.3527348e-10
0.0016027585
5.0939875e-07
3.7699997e-10
0.0016026516
5.0298934e-07
-3.4353457e-10
0.0016027494
-5.4829042e-07
-7.7045769e-11
-5.5161784e-07
-7.7654667e-10
0.0052917162
5.8620471e-07
4.1593597e-10
0.0052916327
5.8952094e-07
-2.2446986e-10
0.005291707
-6.1905396e-07
-5.3990402e-11
-6.3002202e-07
-6.5462023e-10
0.0083545349
6.4769499e-07
4.358098e-10
0.0083544663
6.6085464e-07
-1.3229322e-10
0.0083545254
-6.7479279e-07
-3.7743026e-11
-6.9379823e-07
-5.6079318e-10
0.01114733
7.0179936e-07
4.4340649e-10
0.011147267
7.2528742e-07
-6.3058943e-11
0.011147319
-7.2336833e-07
-2.7532224e-11
-7.5117794e-07
-4.8885544e-10
0.013993936
7.5494086e-07
4.4438643e-10
0.013993874
7.8984235e-07
-1.2475682e-11
0.013993925
-7.7114186e-07
-2.2642502e-11
-8.0910375e-07
-4.3450324e-10
0.017193858
8.1186201e-07
4.4320736e-10
0.017193789
8.600181e-07
2.3688264e-11
0.017193844
-8.2280926e-07
-2.2359899e-11
-8.7299711e-07
-3.9468559e-10
0.021034255
8.756976e-07
4.4319575e-10
0.021034177
9.3981829e-07
4.9287707e-11
0.021034239
-8.814776e-07
-2.5969114e-11
-9.4679845e-07
-3.6715918e-10
0.025803284
9.4815476e-07
4.4660525e-10
0.025803193
1.0319119e-06
6.7607535e-11
0.025803264
-9.4884543e-07
-3.276135e-11
-1.0331326e-06
-3.5027984e-10
0.03180336
1.0297181e-06
4.5475839e-10
0.031803255
1.1378318e-06
8.1300207e-11
0.031803335
-1.0254054e-06
-4.2274402e-11
-1.1335081e-06
-3.4285462e-10
0.039363702
1.1198381e-06
4.6825638e-10
0.039363583
1.258161e-06
9.2636301e-11
0.039363671
-1.110629e-06
-5.430841e-11
-1.2485017e-06
-3.4386413e-10
0.048851883
1.2170862e-06
4.8711674e-10
0.048851749
1.3926817e-06
1.0389666e-10
0.048851845
-1.2031196e-06
-6.8244985e-11
-1.3779058e-06
-3.5238192e-10
0.060684304
1.3192771e-06
5.1092343e-10
0.060684157
1.5404891e-06
1.1358329e-10
0.060684257
-1.3007297e-06
-8.3511268e-11
-1.5208327e-06
-3.6751386e-10
0.075335573
1.4235638e-06
5.3892183e-10
0.075335414
1.7000509e-06
1.2431918e-10
0.075335517
-1.4006534e-06
-9.9853381e-11
-1.6757778e-06
-3.883562e-10
0.093346765
1.5265168e-06
5.7010901e-10
0.093346596
1.8692441e-06
1.3644803e-10
0.093346697
-1.4995029e-06
-1.1669691e-10
-1.84065e-06
-4.1396306e-10
0.11533248
1.6242007e-06
6.0329686e-10
0.1153323
2.0453638e-06
1.5015e-10
0.1153324
-1.5933825e-06
-1.3368383e-10
-2.0127773e-06
-4.4331769e-10
0.1419866
1.7122597e-06
6.3715515e-10
0.14198642
2.2251154e-06
1.6547135e-10
0.1419865
-1.6779723e-06
-1.5036494e-10
-2.1888973e-06
-4.7531264e-10
0.17408654
1.7860244e-06
6.70241e-10
0.17408636
2.4046035e-06
1.8232714e-10
0.17408643
-1.7486337e-06
-1.662499e-10
-2.3651438e-06
-5.0873613e-10
0.21249575
1.840648e-06
7.0102478e-10
0.21249557
2.5793239e-06
2.0052984e-10
0.21249562
-1.800545e-06
-1.808027e-10
-2.5370375e-06
-5.4226972e-10
0.25816416
1.8712797e-06
7.2791532e-10
0.258164
2.7441706e-06
2.1980718e-10
0.25816403
-1.828874e-06
-1.9344621e-10
-2.6994924e-06
-5.7448205e-10
0.31212631
1.8732767e-06
7.4928795e-10
0.31212616
2.8934665e-06
2.3980167e-10
0.31212616
-1.8289897e-06
-2.0357482e-10
-2.8468456e-06
-6.0383701e-10
0.37549668
1.842454e-06
7.635186e-10
0.37549655
3.0210268e-06
2.6006904e-10
0.37549652
-1.7967122e-06
-2.1057423e-10
-2.9729201e-06
-6.2870997e-10
0.44946212
1.7753657e-06
7.6902581e-10
0.44946202
3.1202647e-06
2.8007608e-10
0.44946195
-1.7285939e-06
-2.1384739e-10
-3.0711302e-06
-6.4741229e-10
0.53527092
1.6696059e-06
7.6432133e-10
0.53527085
3.1843482e-06
2.9919116e-10
0.53527075
-1.6222201e-06
-2.1284563e-10
-3.1346384e-06
-6.5822784e-10
0.63421848
1.5241116e-06
7.4806887e-10
0.63421846
3.206415e-06
3.1667552e-10
0.63421831
-1.4765129e-06
-2.0710357e-10
-3.1565704e-06
-6.5944856e-10
0.74762935
1.3394467e-06
7.1914971e-10
0.74762937
3.1798539e-06
3.3170098e-10
0.74762919
-1.2920151e-06
-1.9627648e-10
-3.1302958e-06
-6.4942846e-10
0.87683573
1.1180398e-06
6.767328e-10
0.87683581
3.0986534e-06
3.433497e-10
0.87683559
-1.0711284e-06
-1.8017814e-10
-3.049778e-06
-6.2665178e-10
1.0231527
8.6434564e-07
6.2034615e-10
1.0231528
2.9578191e-06
3.5063507e-10
1.0231525
-8.1827604e-07
-1.5881736e-10
-2.9099912e-06
-5.8979699e-10
1.18785
5.8490148e-07
5.4994484e-10
1.1878502
2.7538527e-06
3.5252757e-10
1.1878499
-5.3995952e-07
-1.3243066e-10
-2.7074005e-06
-5.3781277e-10
1.372122
2.8824737e-07
4.6597105e-10
1.3721223
2.4852784e-06
3.4799187e-10
1.372122
-2.4468051e-07
-1.0150936e-10
-2.4404892e-06
-4.6999879e-10
1.5770548
-1.5310719e-08
3.6939999e-10
1.5770551
2.153195e-06
3.3603527e-10
1.5770548
5.7294495e-08
-6.6820461e-11
-2.1103124e-06
-3.8608872e-10
1.8035927
-3.1410963e-07
2.617664e-10
1.8035931
1.7618216e-06
3.1576572e-10
1.8035928
3.5434069e-07
-2.9415248e-11
-1.7210442e-06
-2.8633217e-10
2.052505
-5.9570875e-07
1.4516432e-10
2.0525054
1.3189948e-06
2.8645941e-10
2.0525051
6.3405227e-07
9.376003e-12
-1.2804781e-06
-1.7157046e-10
2.3243521
-8.4762262e-07
2.2215802e-11
2.3243526
8.3656722e-07
2.4763529e-10
2.3243523
8.8397184e-07
4.7961589e-11
-8.0042781e-07
-4.3298571e-11
2.6194557
-1.0581668e-06
-1.0400622e-10
2.6194562
3.3064676e-07
1.9913364e-10
2.619456
1.0924331e-06
8.4533225e-11
-2.9696979e-07
9.6286373e-11
2.9378704
-1.2173552e-06
-2.3005816e-10
2.9378709
-1.7839184e-07
1.4119447e-10
2.9378708
1.2494551e-06
1.1710379e-10
2.0954181e-07
2.4424853e-10
3.2793611
-1.3177661e-06
-3.5231636e-10
3.2793616
-6.6619987e-07
7.4530963e-11
3.2793615
1.3476056e-06
1.4362443e-10
6.9476553e-07
3.9695187e-10
3.6433846
-1.3552768e-06
-4.6713899e-10
3.643385
-1.1051438e-06
3.7835453e-13
3.643385
1.382735e-06
1.6207289e-10
1.1310607e-06
5.5009618e-10
4.0290787
-1.3295638e-06
-5.7109457e-10
4.029079
-1.4655068e-06
-7.9460029e-11
4.029079
1.3544782e-06
1.7060077e-10
1.4886907e-06
6.9881607e-10
4.4352579
-1.2442746e-06
-6.6120458e-10
4.4352582
-1.7173579e-06
-1.6264777e-10
4.4352583
1.266432e-06
1.6769681e-10
1.7376972e-06
8.3782969e-10
4.8604178
-1.1068216e-06
-7.3519103e-10
4.860418
-1.8333169e-06
-2.4639732e-10
4.8604181
1.1259612e-06
1.5237094e-10
1.8506772e-06
9.6164342e-10
5.3027465
-9.2783901e-07
-7.9168894e-10
5.3027465
-1.7925731e-06
-3.2770354e-10
5.3027467
9.4367319e-07
1.2435913e-10
1.8068207e-06
1.0648261e-09
5.7601453
-7.2050898e-07
-8.3034861e-10
5.760145
-1.5867229e-06
-4.0374793e-10
5.7601453
7.3276856e-07
8.441923e-11
1.5977755e-06
1.1422636e-09
6.2302567
-5.002014e-07
-8.5187687e-10
6.2302563
-1.228178e-06
-4.7219007e-10
6.2302566
5.0871198e-07
3.493324e-11
1.2360878e-06
1.189278e-09
6.7105006
-2.8514454e-07
-8.5784603e-10
6.7105001
-7.6180515e-07
-5.2945455e-10
6.7105003
2.8994984e-07
-2.1309119e-11
7.6686983e-07
1.1999418e-09
7.1981158
-1.0046281e-07
-8.5396519e-10
7.1981153
-2.8415888e-07
-5.738257e-10
7.1981155
1.0196411e-07
-7.5487554e-11
2.8698923e-07
1.1737396e-09
7.6902083
-7.5554807e-10
7.690208
-5.4942302e-10
7.6902081
-9.9186256e-11
9.934913e-10
-0.17074805
3.4013368e-08
-5.0168619e-09
-0.1707481
2.0752121e-08
-9.8621711e-11
-0.17074806
-4.7575328e-08
1.8197034e-09
-4.4692891e-08
3.3288958e-09
-0.05335436
-6.731875e-08
-1.0562824e-08
-0.053354294
-3.9459201e-08
-1.4765472e-09
-0.053354386
3.9428005e-08
1.3016017e-09
3.7114671e-09
2.0327535e-09
-0.065751547
-2.5331415e-07
-7.4133946e-09
-0.065751387
-1.9229832e-07
-1.3035775e-09
-0.065751559
2.1238929e-07
7.5078831e-10
1.4557162e-07
1.6056894e-09
-0.085353881
-5.5236007e-07
-4.9341727e-09
-0.085353604
-4.7191322e-07
-1.2122077e-09
-0.085353885
4.9766924e-07
5.0695239e-10
4.1471167e-07
1.6009497e-09
-0.092954189
-8.3260399e-07
-3.0951414e-09
-0.092953905
-7.5918257e-07
-8.6294524e-10
-0.092954175
7.6576648e-07
2.1022062e-10
6.9181378e-07
1.4807945e-09
-0.090111718
-9.6589135e-07
-2.087312e-09
-0.090111562
-9.1767222e-07
-7.5711338e-10
-0.090111693
8.9022562e-07
-6.7000359e-11
8.4208617e-07
1.3152389e-09
-0.080440125
-9.4313526e-07
-1.3595919e-09
-0.080440119
-9.2324082e-07
-5.0697152e-10
-0.0804401
8.6244672e-07
-1.4521311e-10
8.4223712e-07
1.1405434e-09
-0.067155163
-8.0052174e-07
-8.7827627e-10
-0.06715528
-8.0433721e-07
-3.1535278e-10
-0.067155144
7.184196e-07
-1.8350154e-10
7.2103723e-07
9.6048929e-10
-0.052791126
-5.8514569e-07
-6.9080237e-10
-0.052791322
-6.0520067e-07
-1.8538295e-10
-0.052791115
5.0470765e-07
-2.1507713e-10
5.2248694e-07
7.9130646e-10
-0.039098797
-3.4179226e-07
-5.8406005e-10
-0.039099028
-3.7014461e-07
-1.0120397e-10
-0.039098793
2.6522679e-07
-2.2014333e-10
2.9033593e-07
6.4833536e-10
-0.027077847
-1.0515063e-07
-5.4897378e-10
-0.027078077
-1.3501993e-07
-5.4548901e-11
-0.027077848
3.3945778e-08
-2.0779092e-10
5.9792558e-08
5.3789942e-10
-0.017123899
1.0311662e-07
-5.4735719e-10
-0.017124106
7.6667177e-08
-3.8379757e-11
-0.017123905
-1.680974e-07
-1.8625912e-10
-1.462155e-07
4.583512e-10
-0.0092180219
2.7364262e-07
-5.5597256e-10
-0.0092181945
2.5366271e-07
-4.2636723e-11
-0.00921803
-3.3200086e-07
-1.6145156e-10
-3.1689731e-07
4.0385367e-10
-0.0030998885
4.0636406e-07
-5.6229589e-10
-0.003100025
3.9440768e-07
-5.7830024e-11
-0.0030998977
-4.5801076e-07
-1.3681962e-10
-4.5102712e-07
3.6744562e-10
0.0016027483
5.0694437e-07
-5.6120239e-10
0.0016026431
5.0363525e-07
-7.6556915e-11
0.0016027387
-5.5197229e-07
-1.140894e-10
-5.5355351e-07
3.4293077e-10
0.0052917058
5.8367678e-07
-5.5207903e-10
0.005291624
5.8925736e-07
-9.4043406e-11
0.0052916962
-6.2226579e-07
-9.4041063e-11
-6.3251113e-07
3.25703e-10
0.0083545248
6.4528759e-07
-5.3684168e-10
0.0083544576
6.600603e-07
-1.0783362e-10
0.008354515
-6.7764326e-07
-7.6250784e-11
-6.9674442e-07
3.1286794e-10
0.01114732
6.9963126e-07
-5.1848256e-10
0.011147259
7.2427427e-07
-1.1698254e-10
0.011147309
-7.2595058e-07
-5.9750848e-11
-7.545035e-07
3.0306412e-10
0.013993927
7.5307225e-07
-5.0014548e-10
0.013993866
7.8885287e-07
-1.2181316e-10
0.013993915
-7.7352889e-07
-4.3866601e-11
-8.1274358e-07
2.9604834e-10
0.017193848
8.1031136e-07
-4.8457206e-10
0.017193781
8.5923145e-07
-1.2334699e-10
0.017193834
-8.2505428e-07
-2.8105816e-11
-8.7689675e-07
2.920152e-10
0.021034245
8.7445595e-07
-4.7382546e-10
0.021034168
9.3936039e-07
-1.2288898e-10
0.021034228
-8.8361628e-07
-1.2207338e-11
-9.5091363e-07
2.9139385e-10
0.025803273
9.4719657e-07
-4.6922795e-10
0.025803183
1.0318663e-06
-1.2170093e-10
0.025803253
-9.5089853e-07
3.9144952e-12
-1.0374286e-06
2.9463018e-10
0.031803348
1.0290085e-06
-4.7143229e-10
0.031803244
1.1382498e-06
-1.2082992e-10
0.031803323
-1.0273822e-06
2.0767494e-11
-1.1379591e-06
3.0215649e-10
0.039363689
1.1193375e-06
-4.8051523e-10
0.03936357
1.2590697e-06
-1.2110487e-10
0.039363658
-1.1125302e-06
3.8327346e-11
-1.2530893e-06
3.142278e-10
0.048851868
1.2167526e-06
-4.9610769e-10
0.048851735
1.3940938e-06
-1.244404e-10
0.048851829
-1.2049379e-06
5.6405046e-11
-1.3826168e-06
3.3088912e-10
0.060684286
1.3190675e-06
-5.1750169e-10
0.06068414
1.542397e-06
-1.2839471e-10
0.060684239
-1.3024513e-06
7.4823676e-11
-1.5256569e-06
3.5198788e-10
0.075335553
1.4234339e-06
-5.4372337e-10
0.075335396
1.7024366e-06
-1.3491783e-10
0.075335497
-1.4022588e-06
9.3543907e-11
-1.6807057e-06
3.7718268e-10
0.093346742
1.5264214e-06
-5.7360575e-10
0.093346574
1.8720798e-06
-1.4400199e-10
0.093346674
-1.500967e-06
1.1205076e-10
-1.8456705e-06
4.0595063e-10
0.11533245
1.6240935e-06
-6.0583787e-10
0.11533228
2.0486119e-06
-1.5551447e-10
0.11533237
-1.5946761e-06
1.3027236e-10
-2.0178752e-06
4.3759155e-10
0.14198657
1.7120934e-06
-6.3899784e-10
0.14198639
2.2287286e-06
-1.6927203e-10
0.14198648
-1.6790629e-06
1.478671e-10
-2.1940513e-06
4.7123359e-10
0.17408651
1.7857511e-06
-6.7157448e-10
0.17408633
2.4085239e-06
-1.8501646e-10
0.1740864
-1.7494871e-06
1.64426e-10
-2.3703248e-06
5.0587856e-10
0.21249571
1.8402206e-06
-7.0198783e-10
0.21249554
2.5834825e-06
-2.0245462e-10
0.21249559
-1.8011267e-06
1.7947429e-10
-2.542207e-06
5.4027882e-10
0.25816413
1.8706531e-06
-7.286095e-10
0.25816396
2.7484865e-06
-2.2118327e-10
0.25816399
-1.8291509e-06
1.9248101e-10
-2.704601e-06
5.7310039e-10
0.31212627
1.8724102e-06
-7.4978735e-10
0.31212612
2.8978468e-06
-2.4078481e-10
0.31212612
-1.8289325e-06
2.0287516e-10
-2.851832e-06
6.028819e-10
0.37549664
1.8413141e-06
-7.6387715e-10
0.37549651
3.0253664e-06
-2.6077118e-10
0.37549648
-1.7962979e-06
2.1006822e-10
-2.9777103e-06
6.2805236e-10
0.44946207
1.7739291e-06
-7.6928269e-10
0.44946197
3.1244469e-06
-2.8057475e-10
0.4494619
-1.7278082e-06
2.1348227e-10
-3.0756378e-06
6.4696138e-10
0.53527087
1.6678623e-06
-7.6450493e-10
0.53527081
3.1882454e-06
-2.9953998e-10
0.5352707
-1.6210607e-06
2.1258279e-10
-3.1387641e-06
6.5791689e-10
0.63421843
1.5220674e-06
-7.4819973e-10
0.63421841
3.2098911e-06
-3.1691883e-10
0.63421826
-1.4749919e-06
2.0691483e-10
-3.1602034e-06
6.592316e-10
0.7476293
1.3371275e-06
-7.1924267e-10
0.74762932
3.1827661e-06
-3.3187017e-10
0.74762914
-1.2901613e-06
1.961413e-10
-3.1333155e-06
6.492771e-10
0.87683569
1.1154926e-06
-6.7679859e-10
0.87683577
3.100856e-06
-3.4346695e-10
0.87683554
-1.0689895e-06
1.8008164e-10
-3.0520564e-06
6.2654615e-10
1.0231526
8.6164014e-07
-6.2039251e-10
1.0231528
2.9591682e-06
-3.5071603e-10
1.0231525
-8.1591951e-07
1.587487e-10
-2.9113972e-06
5.8972325e-10
1.18785
5.8212971e-07
-5.4997735e-10
1.1878502
2.7542111e-06
-3.5258324e-10
1.1878499
-5.3747225e-07
1.3238201e-10
-2.7078044e-06
5.3776128e-10
1.372122
2.8552184e-07
-4.6599366e-10
1.3721222
2.4845225e-06
-3.4803005e-10
1.3721219
-2.4216739e-07
1.0147508e-10
-2.4397696e-06
4.6996288e-10
1.5770547
-1.7860963e-08
-3.6941559e-10
1.5770551
2.1512222e-06
-3.3606134e-10
1.5770548
5.9713929e-08
6.6796432e-11
-2.1083637e-06
3.8606371e-10
1.8035927
-3.1634514e-07
-2.6177702e-10
1.8035931
1.7585587e-06
-3.1578344e-10
1.8035928
3.5653737e-07
2.9398504e-11
-1.7177862e-06
2.8631477e-10
2.0525049
-5.9748812e-07
-1.4517138e-10
2.0525054
1.314407e-06
-2.8647141e-10
2.0525051
6.3589474e-07
-9.3876223e-12
-1.2758661e-06
1.7155841e-10
2.3243521
-8.4881313e-07
-2.2220337e-11
2.3243525
8.3066775e-07
-2.4764346e-10
2.3243523
8.8533503e-07
-4.7969616e-11
-7.9446416e-07
4.3290376e-11
2.6194556
-1.0586569e-06
1.0400117e-10
2.6194562
3.2350585e-07
-1.9913916e-10
2.6194559
1.0932086e-06
-8.4537306e-11
-2.8971561e-07
-9.6290687e-11
2.9378704
-1.2170684e-06
2.3005489e-10
2.9378709
-1.866379e-07
-1.4119818e-10
2.9378708
1.2495624e-06
-1.1710647e-10
2.1795493e-07
-2.4425098e-10
3.2793611
-1.3166747e-06
3.5231434e-10
3.2793616
-6.75341e-07
-7.4533375e-11
3.2793615
1.3470035e-06
-1.4362614e-10
7.0412499e-07
-3.9695312e-10
3.6433846
-1.3534149e-06
4.6713783e-10
3.6433851
-1.1148902e-06
-3.8082331e-13
3.643385
1.3814322e-06
-1.6207393e-10
1.1410647e-06
-5.5009654e-10
4.0290787
-1.3270366e-06
5.7109404e-10
4.029079
-1.4754862e-06
7.9458239e-11
4.0290791
1.3525416e-06
-1.7060132e-10
1.4989438e-06
-6.9881579e-10
4.435258
-1.2412625e-06
6.6120448e-10
4.4352582
-1.7271181e-06
1.6264646e-10
4.4352583
1.2639914e-06
-1.6769689e-10
1.7477132e-06
-8.3782898e-10
4.8604179
-1.103574e-06
7.3519119e-10
4.860418
-1.8423385e-06
2.4639636e-10
4.8604181
1.1232075e-06
-1.5237078e-10
1.8598921e-06
-9.6164256e-10
5.3027466
-9.2465489e-07
7.9168929e-10
5.3027465
-1.8003017e-06
3.2770269e-10
5.3027467
9.4084992e-07
-1.2435897e-10
1.8146243e-06
-1.0648252e-09
5.7601453
-7.1769744e-07
8.3034867e-10
5.7601451
-1.5926399e-06
4.0374716e-10
5.7601453
7.301564e-07
-8.4418869e-11
1.6035738e-06
-1.1422628e-09
6.2302568
-4.9801934e-07
8.518765e-10
6.2302564
-1.2319534e-06
4.7218917e-10
6.2302566
5.0661555e-07
-3.4932539e-11
1.2394261e-06
-1.1892773e-09
6.7105006
-2.837179e-07
8.5784528e-10
6.7105001
-7.6363351e-07
5.2945359e-10
6.7105003
2.8869312e-07
2.1309911e-11
7.6770353e-07
-1.1999413e-09
7.1981158
-9.9755821e-08
8.5396419e-10
7.1981154
-2.8495516e-07
5.7382483e-10
7.1981155
1.0188166e-07
7.5488106e-11
2.8593613e-07
-1.1737396e-09
7.6902083
7.5554704e-10
7.690208
5.4942206e-10
7.6902081
9.9186232e-11
-9.934919e-10
-0.17074802
4.6748368e-08
5.2626183e-09
-0.17074808
2.9048973e-08
4.7113066e-10
-0.17074803
-6.2650318e-08
-7.048409e-10
-5.4095199e-08
-3.0561117e-09
-0.053354279
-5.1436687e-08
1.1572889e-08
-0.053354236
-2.3549952e-08
1.8009167e-09
-0.053354302
1.2722238e-08
3.5108518e-11
-2.0049539e-08
-1.8161143e-09
-0.065751514
-2.4853678e-07
8.4931527e-09
-0.065751362
-1.8498375e-07
1.6128332e-09
-0.065751529
1.9609979e-07
6.2546548e-10
1.2562484e-07
-1.4198221e-09
-0.085353863
-5.4439851e-07
5.9756117e-09
-0.0853536
-4.6373977e-07
1.4683959e-09
-0.085353867
4.8204777e-07
8.0780901e-10
3.9263351e-07
-1.3949794e-09
-0.09295421
-8.2678851e-07
4.0778722e-09
-0.092953932
-7.5379483e-07
1.1548073e-09
-0.092954199
7.5720815e-07
1.0591472e-09
6.7371896e-07
-1.2556137e-09
-0.09011177
-9.6363075e-07
2.9395397e-09
-0.090111613
-9.1694576e-07
1.026341e-09
-0.090111745
8.8924953e-07
1.2580747e-09
8.3052169e-07
-1.089914e-09
-0.080440179
-9.429575e-07
2.2104566e-09
-0.080440172
-9.2568833e-07
7.5173955e-10
-0.080440154
8.6677704e-07
1.2008819e-09
8.3627763e-07
-9.326715e-10
-0.067155207
-8.0090744e-07
1.6235174e-09
-0.067155323
-8.0824442e-07
5.2912498e-10
-0.067155188
7.2582745e-07
1.0671369e-09
7.191333e-07
-7.8066876e-10
-0.052791158
-5.8537624e-07
1.3368429e-09
-0.052791353
-6.0933398e-07
3.6295114e-10
-0.052791145
5.1348253e-07
9.209614e-10
5.2331006e-07
-6.4363517e-10
-0.039098816
-3.4132811e-07
1.0730759e-09
-0.039099047
-3.7368279e-07
2.4333311e-10
-0.03909881
2.7418434e-07
7.7359679e-10
2.9286328e-07
-5.3237347e-10
-0.027077853
-1.0382879e-07
9.2830325e-10
-0.027078085
-1.3748692e-07
1.6464556e-10
-0.027077854
4.2350204e-08
6.3498545e-10
6.3281517e-08
-4.5051602e-10
-0.017123898
1.0522943e-07
8.4034424e-10
-0.017124107
7.5441849e-08
1.210809e-10
-0.017123903
-1.6061855e-07
5.1169263e-10
-1.4225379e-07
-3.9515947e-10
-0.0092180155
2.7634543e-07
7.7863756e-10
-0.0092181899
2.5361546e-07
1.0297272e-10
-0.009218023
-3.2555642e-07
4.0630563e-10
-3.1274302e-07
-3.6013461e-10
-0.0030998793
4.0940264e-07
7.2902244e-10
-0.0031000177
3.9532509e-07
1.0055246e-10
-0.003099888
-4.5254541e-07
3.1875172e-10
-4.4681182e-07
-3.3871784e-10
0.0016027586
5.1007312e-07
6.8428379e-10
0.0016026516
5.0523317e-07
1.0589254e-10
0.0016027494
-5.4734897e-07
2.4754434e-10
-5.4931931e-07
-3.2526123e-10
0.0052917162
5.866956e-07
6.4169221e-10
0.0052916328
5.9124115e-07
1.1350988e-10
0.0052917069
-6.1832395e-07
1.9067754e-10
-6.2825679e-07
-3.1584285e-10
0.0083545349
6.4805601e-07
6.012025e-10
0.0083544663
6.621626e-07
1.202513e-10
0.0083545254
-6.742312e-07
1.4528967e-10
-6.9245473e-07
-3.0826104e-10
0.01114733
7.020667e-07
5.6407626e-10
0.011147267
7.262744e-07
1.2453021e-10
0.011147319
-7.2293937e-07
1.0837572e-10
-7.5016378e-07
-3.0179082e-10
0.013993936
7.5513971e-07
5.3198192e-10
0.013993874
7.9058184e-07
1.2610889e-10
0.013993925
-7.7081632e-07
7.7594708e-11
-8.0834392e-07
-2.9672974e-10
0.017193858
8.120103e-07
5.064695e-10
0.017193789
8.605685e-07
1.2555491e-10
0.017193844
-8.2256368e-07
5.1094866e-11
-8.724318e-07
-2.9370544e-10
0.021034255
8.7580828e-07
4.8863744e-10
0.021034177
9.402254e-07
1.2381913e-10
0.021034239
-8.812934e-07
2.7545093e-11
-9.4638056e-07
-2.9347735e-10
0.025803284
9.4823739e-07
4.7906075e-10
0.025803193
1.0322112e-06
1.2189845e-10
0.025803264
-9.4870819e-07
6.0615215e-12
-1.0328255e-06
-2.9673269e-10
0.03180336
1.0297798e-06
4.7781905e-10
0.031803255
1.1380508e-06
1.2064729e-10
0.031803335
-1.0253035e-06
-1.439742e-11
-1.1332837e-06
-3.0407316e-10
0.039363702
1.119884e-06
4.8455468e-10
0.039363583
1.2583209e-06
1.2076006e-10
0.039363671
-1.1105538e-06
-3.4386098e-11
-1.2483386e-06
-3.1586394e-10
0.048851883
1.2171204e-06
4.9857743e-10
0.048851749
1.3927976e-06
1.2445691e-10
0.048851845
-1.2030641e-06
-5.408184e-11
-1.3777879e-06
-3.3221928e-10
0.060684304
1.3193025e-06
5.1894309e-10
0.060684157
1.5405726e-06
1.2845621e-10
0.060684257
-1.300689e-06
-7.3490491e-11
-1.5207478e-06
-3.5302675e-10
0.075335573
1.4235827e-06
5.4450738e-10
0.075335414
1.7001108e-06
1.3500321e-10
0.075335517
-1.4006236e-06
-9.2790285e-11
-1.675717e-06
-3.7796545e-10
0.093346765
1.5265308e-06
5.7398235e-10
0.093346596
1.8692869e-06
1.4410294e-10
0.093346697
-1.4994812e-06
-1.1173777e-10
-1.8406066e-06
-4.0652036e-10
0.11533248
1.624211e-06
6.0597218e-10
0.1153323
2.0453942e-06
1.5562371e-10
0.1153324
-1.5933667e-06
-1.3021341e-10
-2.0127465e-06
-4.3799152e-10
0.1419866
1.7122673e-06
6.389964e-10
0.14198642
2.225137e-06
1.6938293e-10
0.1419865
-1.6779608e-06
-1.4794353e-10
-2.1888755e-06
-4.7150316e-10
0.17408654
1.78603e-06
6.715041e-10
0.17408636
2.4046188e-06
1.8512051e-10
0.17408643
-1.7486254e-06
-1.6456483e-10
-2.3651284e-06
-5.0601199e-10
0.21249575
1.8406521e-06
7.0188893e-10
0.21249557
2.5793346e-06
2.0252363e-10
0.21249562
-1.800539e-06
-1.7963259e-10
-2.5370266e-06
-5.4032152e-10
0.25816416
1.8712827e-06
7.2850531e-10
0.258164
2.7441781e-06
2.212301e-10
0.25816403
-1.8288697e-06
-1.9263506e-10
-2.6994848e-06
-5.7308833e-10
0.31212631
1.8732789e-06
7.4969018e-10
0.31212616
2.8934717e-06
2.4081735e-10
0.31212616
-1.8289866e-06
-2.030132e-10
-2.8468403e-06
-6.0283944e-10
0.37549668
1.8424556e-06
7.6379264e-10
0.37549655
3.0210305e-06
2.6079431e-10
0.37549652
-1.79671e-06
-2.1018568e-10
-2.9729164e-06
-6.2799548e-10
0.44946212
1.7753669e-06
7.6921251e-10
0.44946202
3.1202673e-06
2.8059282e-10
0.44946195
-1.7285923e-06
-2.1357867e-10
-3.0711277e-06
-6.4690016e-10
0.53527092
1.6696068e-06
7.6444861e-10
0.53527085
3.18435e-06
2.9956012e-10
0.53527075
-1.622219e-06
-2.126598e-10
-3.1346367e-06
-6.5786183e-10
0.63421848
1.5241122e-06
7.4815575e-10
0.63421846
3.2064163e-06
3.16939e-10
0.63421831
-1.4765121e-06
-2.0697504e-10
-3.1565692e-06
-6.5918618e-10
0.74762935
1.3394472e-06
7.192091e-10
0.74762937
3.1798548e-06
3.3188911e-10
0.74762919
-1.2920145e-06
-1.9618752e-10
-3.130295e-06
-6.4924038e-10
0.87683573
1.1180401e-06
6.7677346e-10
0.87683581
3.0986539e-06
3.4348401e-10
0.87683559
-1.071128e-06
-1.8011657e-10
-3.0497774e-06
-6.26517e-10
1.0231527
8.6434585e-07
6.2037403e-10
1.0231528
2.9578195e-06
3.507309e-10
1.0231525
-8.1827577e-07
-1.5877475e-10
-2.9099908e-06
-5.8970046e-10
1.18785
5.8490162e-07
5.4996401e-10
1.1878502
2.7538529e-06
3.5259591e-10
1.1878499
-5.3995934e-07
-1.324012e-10
-2.7074002e-06
-5.3774374e-10
1.372122
2.8824747e-07
4.6598412e-10
1.3721223
2.4852786e-06
3.4804067e-10
1.372122
-2.4468038e-07
-1.01489e-10
-2.4404891e-06
-4.6994957e-10
1.5770548
-1.5310653e-08
3.6940882e-10
1.5770551
2.1531951e-06
3.3607013e-10
1.5770548
5.7294579e-08
-6.680635e-11
-2.1103123e-06
-3.8605378e-10
1.8035927
-3.1410958e-07
2.6177226e-10
1.8035931
1.7618216e-06
3.157906e-10
1.8035928
3.5434075e-07
-2.9405429e-11
-1.7210441e-06
-2.8630745e-10
2.052505
-5.9570872e-07
1.4516803e-10
2.0525054
1.3189948e-06
2.8647718e-10
2.0525051
6.3405231e-07
9.3829776e-12
-1.280478e-06
-1.7155317e-10
2.3243521
-8.4762261e-07
2.2218036e-11
2.3243526
8.3656725e-07
2.4764803e-10
2.3243523
8.8397186e-07
4.7966605e-11
-8.0042778e-07
-4.3286694e-11
2.6194557
-1.0581668e-06
-1.0400491e-10
2.6194562
3.3064678e-07
1.9914277e-10
2.619456
1.0924331e-06
8.4536783e-11
-2.9696976e-07
9.6294428e-11
2.9378704
-1.2173552e-06
-2.3005736e-10
2.9378709
-1.7839182e-07
1.4120095e-10
2.9378708
1.2494551e-06
1.171062e-10
2.0954183e-07
2.4425386e-10
3.2793611
-1.3177661e-06
-3.5231589e-10
3.2793616
-6.6619986e-07
7.4535434e-11
3.2793615
1.3476056e-06
1.4362598e-10
6.9476554e-07
3.9695537e-10
3.6433846
-1.3552768e-06
-4.6713879e-10
3.643385
-1.1051438e-06
3.8147064e-13
3.643385
1.382735e-06
1.6207391e-10
1.1310607e-06
5.5009828e-10
4.0290787
-1.3295638e-06
-5.710945e-10
4.029079
-1.4655068e-06
-7.9457736e-11
4.029079
1.3544782e-06
1.7060124e-10
1.4886907e-06
6.9881714e-10
4.4352579
-1.2442746e-06
-6.6120454e-10
4.4352582
-1.7173579e-06
-1.6264601e-10
4.4352583
1.266432e-06
1.676966e-10
1.7376972e-06
8.3783012e-10
4.8604178
-1.1068216e-06
-7.3519088e-10
4.860418
-1.8333169e-06
-2.4639593e-10
4.8604181
1.1259612e-06
1.523702e-10
1.8506772e-06
9.6164337e-10
5.3027465
-9.2783901e-07
-7.9168871e-10
5.3027465
-1.7925731e-06
-3.2770248e-10
5.3027467
9.436732e-07
1.2435819e-10
1.8068207e-06
1.0648258e-09
5.7601453
-7.2050899e-07
-8.3034803e-10
5.760145
-1.5867229e-06
-4.0374703e-10
5.7601453
7.3276857e-07
8.4418014e-11
1.5977755e-06
1.1422632e-09
6.2302567
-5.0020141e-07
-8.5187571e-10
6.2302563
-1.228178e-06
-4.7218916e-10
6.2302566
5.0871199e-07
3.4931598e-11
1.2360878e-06
1.1892775e-09
6.7105006
-2.8514454e-07
-8.578441e-10
6.7105001
-7.6180514e-07
-5.2945376e-10
6.7105003
2.8994985e-07
-2.1311083e-11
7.6686984e-07
1.1999414e-09
7.1981158
-1.0046281e-07
-8.5396288e-10
7.1981153
-2.8415888e-07
-5.7382501e-10
7.1981155
1.0196412e-07
-7.5489333e-11
2.8698923e-07
1.1737397e-09
7.6902083
-7.5554595e-10
7.690208
-5.4942208e-10
7.6902081
-9.9186804e-11
9.9349199e-10
-0.17074805
3.4920169e-08
-0.1707481
2.1622975e-08
-0.17074806
-4.6147465e-08
-4.3524588e-08
-0.05335436
-6.6228698e-08
-0.053354293
-3.8598897e-08
-0.053354386
3.9213393e-08
5.262227e-09
-0.065751547
-2.5257426e-07
-0.065751387
-1.9151895e-07
-0.06575156
2.1076173e-07
1.4682242e-07
-0.085353882
-5.52596e-07
-0.085353604
-4.7146969e-07
-0.085353886
4.9507513e-07
4.1542808e-07
-0.092954189
-8.3385106e-07
-0.092953904
-7.5904649e-07
-0.092954176
7.6264837e-07
6.9203785e-07
-0.090111719
-9.6791866e-07
-0.090111561
-9.1778977e-07
-0.090111694
8.8702342e-07
8.4196263e-07
-0.080440125
-9.4552031e-07
-0.080440119
-9.2352217e-07
-0.0804401
8.59403e-07
8.4192079e-07
-0.067155163
-8.0299183e-07
-0.067155279
-8.0469487e-07
-0.067155144
7.1566611e-07
7.2064978e-07
-0.052791127
-5.875031e-07
-0.052791322
-6.0556939e-07
-0.052791115
5.0230913e-07
5.2210903e-07
-0.039098798
-3.4388891e-07
-0.039099028
-3.7048178e-07
-0.039098793
2.6319896e-07
2.9001185e-07
-0.027077847
-1.0693698e-07
-0.027078077
-1.3530429e-07
-0.027077848
3.2273582e-08
5.9539004e-08
-0.017123899
1.0164444e-07
-0.017124106
7.6441985e-08
-0.017123905
-1.6944663e-07
-1.4639866e-07
-0.009218022
2.7246143e-07
-0.0092181944
2.5349379e-07
-0.0092180301
-3.3306841e-07
-3.1701912e-07
-0.0030998886
4.0543746e-07
-0.0031000249
3.9428716e-07
-0.0030998978
-4.5884052e-07
-4.5110012e-07
0.0016027482
5.0623163e-07
0.0016026431
5.0355347e-07
0.0016027387
-5.526067e-07
-5.5359054e-07
0.0052917058
5.8313815e-07
0.005291624
5.892048e-07
0.0052916962
-6.227434e-07
-6.3252359e-07
0.0083545248
6.4488714e-07
0.0083544577
6.600286e-07
0.008354515
-6.7799759e-07
-6.967415e-07
0.01114732
6.9933816e-07
0.011147259
7.2425671e-07
0.011147309
-7.2620975e-07
-7.5449209e-07
0.013993927
7.5286097e-07
0.013993866
7.8884438e-07
0.013993915
-7.7371579e-07
-8.1272845e-07
0.017193848
8.1016136e-07
0.017193781
8.592284e-07
0.017193834
-8.2518716e-07
-8.7688101e-07
0.021034245
8.7435111e-07
0.021034168
9.3936032e-07
0.021034228
-8.8370935e-07
-9.5089907e-07
0.025803273
9.4712449e-07
0.025803183
1.0318677e-06
0.025803253
-9.5096266e-07
-1.0374161e-06
0.031803348
1.0289599e-06
0.031803244
1.1382516e-06
0.031803323
-1.0274257e-06
-1.137949e-06
0.039363689
1.1193052e-06
0.039363571
1.2590713e-06
0.039363658
-1.1125591e-06
-1.2530815e-06
0.048851868
1.2167318e-06
0.048851735
1.394095e-06
0.048851829
-1.2049568e-06
-1.382611e-06
0.060684286
1.3190544e-06
0.06068414
1.5423979e-06
0.060684239
-1.3024633e-06