/*--------------------------------*- C++ -*----------------------------------*\
| =========                 |                                                 |
| \\      /  F ield         | OpenFOAM: The Open Source CFD Toolbox           |
|  \\    /   O peration     | Version:  3.0.x                                 |
|   \\  /    A nd           | Web:      www.OpenFOAM.org                      |
|    \\/     M anipulation  |                                                 |
\*---------------------------------------------------------------------------*/
FoamFile
{
    version     2.0;
    format      ascii;
    class       volScalarField;
    location    "125";
    object      sigmayy;
}
// * * * * * * * * * * * * * * * * * * * * * * * * * * * * * * * * * * * * * //

dimensions      [0 2 -2 0 0 0 0];

internalField   nonuniform List<scalar> 
960
(
-3.6307487e-09
1.9271811e-09
-2.9758474e-09
-3.2053237e-09
-2.4625258e-09
-2.1248794e-09
2.5745084e-09
1.6881059e-09
-5.6305322e-09
-6.7855864e-09
7.6445736e-09
6.5138011e-09
-9.8712492e-09
-1.1186039e-08
1.143066e-08
1.0957385e-08
-1.0434401e-08
-1.1567937e-08
1.1108463e-08
1.1422578e-08
-5.1765298e-09
-6.6947821e-09
5.6667652e-09
6.6560699e-09
1.1716867e-09
-2.7719848e-10
-8.1273688e-10
3.3469236e-10
6.0994931e-09
4.9803907e-09
-5.8155201e-09
-4.8399525e-09
9.0726017e-09
8.3612757e-09
-8.8231886e-09
-8.1551216e-09
1.02172e-08
9.8901834e-09
-9.9840011e-09
-9.638745e-09
9.9263605e-09
9.8871064e-09
-9.7032599e-09
-9.610318e-09
8.725382e-09
8.8974061e-09
-8.5115609e-09
-8.6122983e-09
7.1307998e-09
7.4440494e-09
-6.9271521e-09
-7.163356e-09
5.531569e-09
5.9068736e-09
-5.3388923e-09
-5.6387742e-09
4.1696915e-09
4.5649208e-09
-3.9880143e-09
-4.3136272e-09
3.1531496e-09
3.5520271e-09
-2.9815404e-09
-3.3187235e-09
2.5006146e-09
2.9059155e-09
-2.3374679e-09
-2.6897562e-09
2.1784916e-09
2.6038004e-09
-2.0219776e-09
-2.4028031e-09
2.1224795e-09
2.5945658e-09
-1.9708859e-09
-2.4063365e-09
2.2689588e-09
2.8067672e-09
-2.1209579e-09
-2.6290005e-09
2.5286008e-09
3.1975118e-09
-2.3833812e-09
-3.0282979e-09
2.8692722e-09
3.6851122e-09
-2.726533e-09
-3.5230876e-09
3.2235131e-09
4.2378029e-09
-3.0834121e-09
-4.0821806e-09
3.5513106e-09
4.8068233e-09
-3.4143921e-09
-4.6573485e-09
3.8170009e-09
5.3698327e-09
-3.6840979e-09
-5.2266693e-09
3.999425e-09
5.8853277e-09
-3.8715575e-09
-5.7489416e-09
4.0578905e-09
6.3469366e-09
-3.9361777e-09
-6.2180299e-09
3.9650219e-09
6.7048282e-09
-3.850603e-09
-6.5842542e-09
3.6955796e-09
6.9427201e-09
-3.5895412e-09
-6.8313717e-09
3.2489125e-09
7.0441401e-09
-3.1522403e-09
-6.9428871e-09
2.6162507e-09
7.0144696e-09
-2.5297957e-09
-6.9241111e-09
1.8592154e-09
6.6591663e-09
-1.7836667e-09
-6.5803861e-09
7.4468704e-10
6.2720874e-09
-6.8055361e-10
-6.205432e-09
-4.996076e-10
5.5044041e-09
5.5200113e-10
-5.4502555e-09
-1.9718216e-09
4.5638406e-09
2.0123423e-09
-4.5224082e-09
-3.540338e-09
3.3282097e-09
3.5690438e-09
-3.2995219e-09
-5.1760943e-09
1.6797043e-09
5.1932287e-09
-1.6636008e-09
-6.841547e-09
-1.60594e-10
6.847535e-09
1.6445739e-10
-8.6021805e-09
-2.1856727e-09
8.5976131e-09
2.1778231e-09
-1.0073012e-08
-4.6006682e-09
1.0058637e-08
4.5818114e-09
-1.141931e-08
-7.1552304e-09
1.1396009e-08
7.1262358e-09
-1.2582874e-08
-9.918498e-09
1.2551634e-08
9.8803768e-09
-1.339676e-08
-1.2722976e-08
1.3358636e-08
1.2676855e-08
-1.3700644e-08
-1.5385736e-08
1.365672e-08
1.5332813e-08
-1.2790842e-08
-1.759764e-08
1.2742165e-08
1.7539134e-08
-1.2309944e-08
-2.0145203e-08
1.2257443e-08
2.0082281e-08
-1.1479983e-08
-2.1251816e-08
1.1424393e-08
2.1185516e-08
-9.2137569e-09
-2.1908083e-08
9.1555401e-09
2.183923e-08
-7.7778283e-09
-2.3104248e-08
7.7170876e-09
2.3033382e-08
-5.0247148e-09
-2.1400516e-08
4.9611383e-09
2.1327826e-08
-2.1561381e-09
-2.0033678e-08
2.0889905e-09
1.9958976e-08
7.2176035e-10
-1.6726174e-08
-7.9356571e-10
1.6648984e-08
2.3881572e-09
-1.25822e-08
-2.46587e-09
1.2501945e-08
4.9560789e-09
-6.5665434e-09
-5.040726e-09
6.4829223e-09
7.2269166e-09
2.9331155e-11
-7.3186116e-09
-1.1580302e-10
8.0305184e-09
8.0042984e-09
-8.1280515e-09
-8.0917725e-09
9.5295289e-09
1.3482519e-08
-9.6313439e-09
-1.3568478e-08
8.2229016e-09
1.8606094e-08
-8.3325124e-09
-1.8681279e-08
6.9402643e-09
1.7636738e-08
-7.0216637e-09
-1.7707812e-08
4.2898714e-09
1.2324429e-08
-4.3395956e-09
-1.2400313e-08
1.7361508e-09
1.940163e-09
-2.3106356e-09
-2.6101026e-09
-3.7343032e-09
-2.6122284e-09
3.4143892e-09
2.2179207e-09
-8.0668416e-09
-6.8076735e-09
7.7175233e-09
6.5398694e-09
-1.1869691e-08
-1.1330108e-08
1.1502016e-08
1.1029268e-08
-1.1295298e-08
-1.15878e-08
1.0959109e-08
1.1316609e-08
-5.6183852e-09
-6.5856267e-09
5.3672628e-09
6.3667823e-09
9.0944433e-10
-1.9169233e-10
-1.0631343e-09
4.6147083e-11
5.9216875e-09
5.0170095e-09
-5.9788628e-09
-5.0815303e-09
8.9570367e-09
8.345303e-09
-8.9297477e-09
-8.3330234e-09
1.0132072e-08
9.8370295e-09
-1.003981e-08
-9.7610005e-09
9.8480032e-09
9.8293323e-09
-9.7110237e-09
-9.7059831e-09
8.6579861e-09
8.8429951e-09
-8.4934982e-09
-8.6879557e-09
7.0844754e-09
7.3755291e-09
-6.9058206e-09
-7.2015555e-09
5.4985784e-09
5.8486342e-09
-5.3150479e-09
-5.6651387e-09
4.1470649e-09
4.5191059e-09
-3.964416e-09
-4.3323833e-09
3.1402349e-09
3.5191288e-09
-2.9614975e-09
-3.3328993e-09
2.4958576e-09
2.884335e-09
-2.322208e-09
-2.7004732e-09
2.1785475e-09
2.5937253e-09
-2.0100513e-09
-2.412972e-09
2.1245013e-09
2.5917013e-09
-1.9607158e-09
-2.4142157e-09
2.2661619e-09
2.8114611e-09
-2.106517e-09
-2.6372222e-09
2.5368199e-09
3.2059768e-09
-2.380867e-09
-3.0350225e-09
2.8658046e-09
3.6961011e-09
-2.713382e-09
-3.528648e-09
3.2302517e-09
4.2503678e-09
-3.0815265e-09
-4.0868737e-09
3.5570013e-09
4.8202792e-09
-3.4124481e-09
-4.6614161e-09
3.8215609e-09
5.3836536e-09
-3.6819023e-09
-5.2302897e-09
3.9917119e-09
5.8990485e-09
-3.8578449e-09
-5.7522247e-09
4.0489656e-09
6.3490949e-09
-3.9218882e-09
-6.2099145e-09
3.9548504e-09
6.7062349e-09
-3.8355972e-09
-6.5757964e-09
3.6841253e-09
6.9541948e-09
-3.5737075e-09
-6.8335641e-09
3.2472404e-09
7.0432081e-09
-3.1465897e-09
-6.9333773e-09
2.6132492e-09
7.0230242e-09
-2.5231812e-09
-6.9248736e-09
1.743944e-09
6.6657965e-09
-1.6651262e-09
-6.5800658e-09
6.2816254e-10
6.2764618e-09
-5.6108838e-10
-6.2037268e-09
-6.1725986e-10
5.5061815e-09
6.722855e-10
-5.446834e-09
-1.9794488e-09
4.451724e-09
2.0223158e-09
-4.4059665e-09
-3.5486146e-09
3.3237862e-09
3.5794127e-09
-3.2916162e-09
-5.184647e-09
1.6717207e-09
5.2036642e-09
-1.6529277e-09
-6.8499172e-09
-1.7238728e-10
6.8576336e-09
1.7822166e-10
-8.6098292e-09
-2.2014503e-09
8.6069053e-09
2.1949548e-09
-1.0190296e-08
-4.6205096e-09
1.0177554e-08
4.6025102e-09
-1.1534645e-08
-7.1790952e-09
1.1513044e-08
7.1505958e-09
-1.2695635e-08
-9.9461899e-09
1.266624e-08
9.9083513e-09
-1.3395421e-08
-1.2754116e-08
1.3359353e-08
1.2708214e-08
-1.3584747e-08
-1.5530691e-08
1.3543144e-08
1.5478066e-08
-1.278201e-08
-1.7633676e-08
1.2735947e-08
1.7575665e-08
-1.2297173e-08
-2.0182203e-08
1.2247554e-08
2.012005e-08
-1.146352e-08
-2.1288445e-08
1.1411004e-08
2.1223211e-08
-9.1941966e-09
-2.3052306e-08
9.1391185e-09
2.2984769e-08
-7.7561509e-09
-2.3135109e-08
7.6984123e-09
2.3065684e-08
-5.0022879e-09
-2.1425519e-08
4.9413032e-09
2.1354195e-08
-2.1346817e-09
-2.0050602e-08
2.0693888e-09
1.9976926e-08
7.4026299e-10
-1.6732722e-08
-8.1129689e-10
1.6655913e-08
3.5111949e-09
-1.1466594e-08
-3.5895048e-09
1.1385762e-08
4.9626521e-09
-6.5460232e-09
-5.0493432e-09
6.4605219e-09
7.2252539e-09
1.1750801e-09
-7.3201871e-09
-1.265109e-09
8.020176e-09
6.946152e-09
-8.1214469e-09
-7.0392192e-09
8.4016296e-09
1.354376e-08
-8.5067526e-09
-1.3637113e-08
9.3098627e-09
1.8654584e-08
-9.4104765e-09
-1.8746664e-08
6.9197335e-09
1.7671862e-08
-6.9973839e-09
-1.7744237e-08
4.2726578e-09
1.2344321e-08
-4.3386397e-09
-1.2390081e-08
2.0081635e-09
2.1638116e-09
-2.7955805e-09
-2.9649109e-09
-3.7749379e-09
-2.2458507e-09
2.8788717e-09
1.572956e-09
-8.5313563e-09
-6.9077346e-09
7.8556702e-09
6.3903215e-09
-1.1986721e-08
-1.1305829e-08
1.1511541e-08
1.0816371e-08
-1.1450985e-08
-1.1693557e-08
1.1124664e-08
1.1323575e-08
-5.856533e-09
-6.8151521e-09
5.6496503e-09
6.5557737e-09
7.438987e-10
-3.9174962e-10
-8.4677244e-10
2.4171615e-10
5.8287034e-09
4.8788683e-09
-5.840011e-09
-4.9255163e-09
8.9209755e-09
8.273908e-09
-8.8610229e-09
-8.23231e-09
1.0125119e-08
9.8164537e-09
-1.00147e-08
-9.7067389e-09
9.8707002e-09
9.8258231e-09
-9.7281916e-09
-9.6688119e-09
8.6910925e-09
8.8581801e-09
-8.5317861e-09
-8.6726439e-09
7.1089896e-09
7.4031836e-09
-6.9435211e-09
-7.204034e-09
5.5182718e-09
5.8740616e-09
-5.3531932e-09
-5.6718045e-09
4.1598399e-09
4.5388771e-09
-3.9985741e-09
-4.3400459e-09
3.146221e-09
3.5315842e-09
-2.9899274e-09
-3.3395782e-09
2.4967409e-09
2.890027e-09
-2.3451798e-09
-2.7060255e-09
2.1748513e-09
2.5926685e-09
-2.0271282e-09
-2.4164699e-09
2.1197901e-09
2.5852134e-09
-1.9748712e-09
-2.4159394e-09
2.2669603e-09
2.7996778e-09
-2.1240242e-09
-2.6362784e-09
2.5271089e-09
3.1921765e-09
-2.3857296e-09
-3.0337713e-09
2.8681532e-09
3.6811254e-09
-2.7283182e-09
-3.5271795e-09
3.2226722e-09
4.2348475e-09
-3.084759e-09
-4.085217e-09
3.5506794e-09
4.8046456e-09
-3.4154004e-09
-4.6595869e-09
3.8165285e-09
5.3682294e-09
-3.6848474e-09
-5.2283104e-09
3.9990719e-09
5.8841523e-09
-3.8721147e-09
-5.7501392e-09
4.0576266e-09
6.3460811e-09
-3.9365911e-09
-6.2189002e-09
3.964825e-09
6.7042109e-09
-3.8509067e-09
-6.5848813e-09
3.6954341e-09
6.9422767e-09
-3.5897639e-09
-6.8318217e-09
3.2488046e-09
7.0438221e-09
-3.1524039e-09
-6.9432088e-09
2.61617e-09
7.014242e-09
-2.5299147e-09
-6.9243395e-09
1.8591567e-09
6.6590051e-09
-1.7837526e-09
-6.5805499e-09
7.4464356e-10
6.2719745e-09
-6.8061653e-10
-6.2055483e-09
-4.9963947e-10
5.5043235e-09
5.5195534e-10
-5.4503369e-09
-1.9718444e-09
4.5637832e-09
2.0123099e-09
-4.5224646e-09
-3.5403549e-09
3.3281696e-09
3.5690205e-09
-3.2995609e-09
-5.1761066e-09
1.6796763e-09
5.1932112e-09
-1.6636287e-09
-6.8415568e-09
-1.6061426e-10
6.8475229e-09
1.6443724e-10
-8.602187e-09
-2.1856866e-09
8.5976053e-09
2.1778093e-09
-1.0073016e-08
-4.6006769e-09
1.0058631e-08
4.5818019e-09
-1.1419313e-08
-7.1552368e-09
1.1396004e-08
7.1262294e-09
-1.2582876e-08
-9.9185023e-09
1.2551631e-08
9.8803735e-09
-1.3396761e-08
-1.2722978e-08
1.3358634e-08
1.2676852e-08
-1.3700645e-08
-1.5385738e-08
1.3656718e-08
1.5332811e-08
-1.2790842e-08
-1.7597642e-08
1.2742163e-08
1.7539133e-08
-1.2309945e-08
-2.0145204e-08
1.2257442e-08
2.008228e-08
-1.1479984e-08
-2.1251817e-08
1.1424392e-08
2.1185515e-08
-9.2137569e-09
-2.1908083e-08
9.1555392e-09
2.1839229e-08
-7.7778284e-09
-2.3104249e-08
7.7170884e-09
2.3033382e-08
-5.0247148e-09
-2.1400517e-08
4.9611383e-09
2.1327826e-08
-2.1561381e-09
-2.0033678e-08
2.0889897e-09
1.9958977e-08
7.2176035e-10
-1.6726174e-08
-7.9356572e-10
1.6648984e-08
2.3881572e-09
-1.25822e-08
-2.46587e-09
1.2501944e-08
4.9560789e-09
-6.5665434e-09
-5.040726e-09
6.4829223e-09
7.2269166e-09
2.9331167e-11
-7.3186116e-09
-1.1580301e-10
8.0305183e-09
8.0042984e-09
-8.1280515e-09
-8.0917725e-09
9.5295289e-09
1.3482519e-08
-9.6313438e-09
-1.3568478e-08
8.2229017e-09
1.8606094e-08
-8.3325124e-09
-1.8681279e-08
6.9402642e-09
1.7636738e-08
-7.0216638e-09
-1.7707812e-08
4.2898714e-09
1.2324429e-08
-4.3395957e-09
-1.2400313e-08
1.7707635e-09
1.9659897e-09
-2.2685406e-09
-2.5743665e-09
-3.7239964e-09
-2.6032348e-09
3.4253654e-09
2.2325922e-09
-8.0640966e-09
-6.8087917e-09
7.7001808e-09
6.5345478e-09
-1.1895084e-08
-1.1334468e-08
1.1521867e-08
1.1018628e-08
-1.1302271e-08
-1.1593943e-08
1.0966037e-08
1.1305828e-08
-5.6213847e-09
-6.5903969e-09
5.3820129e-09
6.3589834e-09
9.1344396e-10
-1.943156e-10
-1.0440103e-09
4.2094383e-11
5.9316652e-09
5.016394e-09
-5.9585333e-09
-5.0825269e-09
8.9705972e-09
8.3462028e-09
-8.909968e-09
-8.3320448e-09
1.0147411e-08
9.8388201e-09
-1.0021526e-08
-9.7590058e-09
9.8633575e-09
9.8314948e-09
-9.6947996e-09
-9.7036823e-09
8.6720653e-09
8.8451836e-09
-8.4795771e-09
-8.6857887e-09
7.0967163e-09
7.3774982e-09
-6.8942012e-09
-7.1997386e-09
5.5088158e-09
5.8513786e-09
-5.3055779e-09
-5.6648511e-09
4.1553735e-09
4.5203802e-09
-3.9568587e-09
-4.3313889e-09
3.1468201e-09
3.5200713e-09
-2.955581e-09
-3.3322479e-09
2.5009659e-09
2.8850029e-09
-2.3176538e-09
-2.7000892e-09
2.1824334e-09
2.5941763e-09
-2.0065994e-09
-2.4127812e-09
2.1274086e-09
2.59199e-09
-1.9581406e-09
-2.4141573e-09
2.2683002e-09
2.8116345e-09
-2.1046228e-09
-2.6372437e-09
2.5383673e-09
3.206074e-09
-2.3794909e-09
-3.0350854e-09
2.8669107e-09
3.6961494e-09
-2.7123983e-09
-3.5287295e-09
3.231029e-09
4.2503863e-09
-3.0808349e-09
-4.0869553e-09
3.5575381e-09
4.8202814e-09
-3.4119688e-09
-4.6614901e-09
3.8219261e-09
5.383649e-09
-3.6815759e-09
-5.2303535e-09
3.9919552e-09
5.8990432e-09
-3.8576256e-09
-5.7522749e-09
4.0491245e-09
6.3490884e-09
-3.9217445e-09
-6.2099516e-09
3.9549514e-09
6.7062305e-09
-3.8355056e-09
-6.5758233e-09
3.6841872e-09
6.9541932e-09
-3.5736496e-09
-6.8335834e-09
3.2472764e-09
7.0432064e-09
-3.1465549e-09
-6.9333896e-09
2.6132685e-09
7.0230241e-09
-2.5231616e-09
-6.9248812e-09
1.7439534e-09
6.6657979e-09
-1.6651166e-09
-6.5800688e-09
6.2816592e-10
6.2764639e-09
-5.610841e-10
-6.2037273e-09
-6.1726057e-10
5.5061832e-09
6.722873e-10
-5.4468338e-09
-1.9794509e-09
4.4517263e-09
2.0223143e-09
-4.4059658e-09
-3.5486172e-09
3.3237883e-09
3.5794106e-09
-3.2916157e-09
-5.1846501e-09
1.6717217e-09
5.2036623e-09
-1.6529256e-09
-6.8499191e-09
-1.7238474e-10
6.8576319e-09
1.7822437e-10
-8.6098309e-09
-2.2014479e-09
8.6069038e-09
2.1949573e-09
-1.0190299e-08
-4.6205092e-09
1.0177552e-08
4.6025117e-09
-1.1534646e-08
-7.1790939e-09
1.1513042e-08
7.1505971e-09
-1.2695636e-08
-9.9461888e-09
1.266624e-08
9.9083516e-09
-1.3395422e-08
-1.2754114e-08
1.3359353e-08
1.2708214e-08
-1.3584747e-08
-1.553069e-08
1.3543143e-08
1.5478067e-08
-1.2782011e-08
-1.7633677e-08
1.2735947e-08
1.7575666e-08
-1.2297174e-08
-2.0182202e-08
1.2247553e-08
2.0120051e-08
-1.1463519e-08
-2.1288444e-08
1.1411004e-08
2.1223211e-08
-9.1941966e-09
-2.3052307e-08
9.1391184e-09
2.2984769e-08
-7.7561518e-09
-2.3135109e-08
7.6984123e-09
2.3065684e-08
-5.002288e-09
-2.142552e-08
4.9413032e-09
2.1354195e-08
-2.1346818e-09
-2.0050602e-08
2.0693888e-09
1.9976926e-08
7.4026298e-10
-1.6732721e-08
-8.112969e-10
1.6655913e-08
3.5111949e-09
-1.1466594e-08
-3.5895048e-09
1.1385762e-08
4.9626521e-09
-6.5460232e-09
-5.0493432e-09
6.4605219e-09
7.2252539e-09
1.1750802e-09
-7.3201871e-09
-1.265109e-09
8.0201761e-09
6.9461521e-09
-8.121447e-09
-7.0392191e-09
8.4016298e-09
1.354376e-08
-8.5067527e-09
-1.3637113e-08
9.3098626e-09
1.8654584e-08
-9.4104765e-09
-1.8746664e-08
6.9197334e-09
1.7671862e-08
-6.9973838e-09
-1.7744237e-08
4.2726578e-09
1.2344321e-08
-4.3386396e-09
-1.2390081e-08
)
;

boundaryField
{
    movingWall
    {
        type            calculated;
        value           nonuniform List<scalar> 
16
(
3.752054e-09
3.7355057e-09
3.752054e-09
3.7355057e-09
1.1079502e-08
1.1082152e-08
1.1079502e-08
1.1082152e-08
-3.8042818e-09
-3.8068856e-09
-3.8042819e-09
-3.8068857e-09
-1.1154891e-08
-1.1120391e-08
-1.1154891e-08
-1.1120391e-08
)
;
    }
    CPLReceiveMD
    {
        type            calculated;
        value           nonuniform List<scalar> 
16
(
-6.5496202e-09
3.5128853e-09
4.0243078e-09
3.5468881e-09
3.2655346e-09
3.6064619e-09
3.7885364e-09
3.6392437e-09
-4.9769843e-09
-4.3629571e-09
-4.8237817e-09
-4.3018157e-09
-5.1349611e-09
-4.3810771e-09
-4.6270762e-09
-4.3410784e-09
)
;
    }
    streamwiseIn
    {
        type            cyclic;
    }
    streamwiseOut
    {
        type            cyclic;
    }
    front
    {
        type            cyclic;
    }
    back
    {
        type            cyclic;
    }
}


// ************************************************************************* //
