/*--------------------------------*- C++ -*----------------------------------*\
| =========                 |                                                 |
| \\      /  F ield         | OpenFOAM: The Open Source CFD Toolbox           |
|  \\    /   O peration     | Version:  3.0.x                                 |
|   \\  /    A nd           | Web:      www.OpenFOAM.org                      |
|    \\/     M anipulation  |                                                 |
\*---------------------------------------------------------------------------*/
FoamFile
{
    version     2.0;
    format      ascii;
    class       volScalarField;
    location    "125";
    object      sigmaxy;
}
// * * * * * * * * * * * * * * * * * * * * * * * * * * * * * * * * * * * * * //

dimensions      [0 2 -2 0 0 0 0];

internalField   nonuniform List<scalar> 
960
(
0.033161826
0.033161819
0.033161821
0.033161821
0.0043687395
0.0043687568
0.0043687564
0.0043687378
-0.0013314649
-0.0013314434
-0.0013314455
-0.0013314637
-0.0011318707
-0.0011318553
-0.0011318565
-0.001131869
-0.0001979687
-0.00019796936
-0.00019797079
-0.00019796618
0.00052069664
0.00052068399
0.00052068317
0.0005206978
0.00095519454
0.00095518211
0.00095518167
0.00095519417
0.0011504382
0.0011504306
0.0011504304
0.0011504372
0.0011673857
0.0011673833
0.0011673832
0.0011673845
0.0010698912
0.0010698929
0.001069893
0.0010698903
0.00091434128
0.00091434537
0.00091434558
0.00091434063
0.00074311881
0.00074312335
0.00074312349
0.00074311833
0.00058351661
0.00058352018
0.00058352032
0.00058351631
0.00045023529
0.00045023708
0.0004502372
0.00045023519
0.00034916194
0.0003491615
0.00034916155
0.00034916191
0.00028093266
0.00028092998
0.00028092995
0.00028093264
0.00024364572
0.00024364096
0.00024364086
0.00024364564
0.0002346504
0.00023464382
0.00023464364
0.00023465023
0.00025159112
0.00025158299
0.00025158275
0.00025159086
0.00029294194
0.00029293254
0.0002929321
0.00029294151
0.00035823073
0.00035822023
0.00035821961
0.00035823017
0.00044809234
0.00044808073
0.00044808008
0.00044809155
0.00056423527
0.0005642227
0.00056422187
0.00056423424
0.00070937052
0.00070935712
0.00070935595
0.00070936935
0.00088712585
0.00088711151
0.0008871101
0.00088712444
0.0011019549
0.0011019396
0.0011019379
0.0011019532
0.0013590449
0.0013590287
0.0013590266
0.0013590427
0.0016642206
0.0016642037
0.0016642011
0.0016642181
0.0020238404
0.0020238228
0.0020238196
0.0020238376
0.0024446788
0.0024446607
0.0024446565
0.0024446757
0.0029337907
0.002933772
0.0029337679
0.0029337876
0.0034983556
0.0034983363
0.0034983314
0.0034983514
0.0041454905
0.0041454714
0.0041454652
0.0041454856
0.0048820424
0.0048820237
0.0048820167
0.0048820374
0.0057143499
0.0057143312
0.0057143234
0.0057143441
0.006647979
0.0066479613
0.0066479533
0.0066479736
0.0076874474
0.007687431
0.0076874222
0.0076874425
0.0088359282
0.0088359129
0.0088359025
0.0088359224
0.010094952
0.010094939
0.010094928
0.010094947
0.011464123
0.011464112
0.011464101
0.011464119
0.012940848
0.012940839
0.012940828
0.012940844
0.014520101
0.014520094
0.014520082
0.014520097
0.016194235
0.016194232
0.016194219
0.016194234
0.017952859
0.017952855
0.017952843
0.01795286
0.019782774
0.019782775
0.019782763
0.019782777
0.021668023
0.021668024
0.021668014
0.021668019
0.023589979
0.023589977
0.023589967
0.023589976
0.025527581
0.02552759
0.025527581
0.025527586
0.02745768
0.027457686
0.027457679
0.02745768
0.029355388
0.029355391
0.029355386
0.02935539
0.031194623
0.031194629
0.031194626
0.031194627
0.032948661
0.032948669
0.032948662
0.032948661
0.034590773
0.034590782
0.03459077
0.034590775
0.036094901
0.036094897
0.036094894
0.036094898
0.037436318
0.037436307
0.037436304
0.037436302
0.038592315
0.038592302
0.038592307
0.0385923
0.039542866
0.03954285
0.039542861
0.039542844
0.040271175
0.040271163
0.040271172
0.040271152
0.04076417
0.040764174
0.040764189
0.040764165
0.041012927
0.041012948
0.041012982
0.041012928
0.033161821
0.033161817
0.033161818
0.033161815
0.0043687385
0.0043687557
0.0043687561
0.004368738
-0.0013314618
-0.0013314422
-0.0013314432
-0.0013314595
-0.0011318683
-0.0011318536
-0.0011318543
-0.0011318662
-0.00019796527
-0.00019796726
-0.00019796848
-0.0001979624
0.00052069818
0.00052068493
0.00052068427
0.00052069937
0.00095519426
0.00095518166
0.00095518135
0.00095519382
0.0011504373
0.0011504296
0.0011504296
0.0011504362
0.0011673845
0.0011673822
0.0011673822
0.0011673834
0.0010698901
0.0010698919
0.001069892
0.0010698892
0.00091434051
0.00091434462
0.00091434477
0.00091433973
0.0007431182
0.00074312279
0.00074312299
0.00074311776
0.0005835162
0.00058351984
0.00058352004
0.00058351601
0.00045023512
0.00045023691
0.00045023702
0.00045023503
0.00034916188
0.00034916144
0.00034916149
0.00034916187
0.00028093268
0.00028092997
0.00028092995
0.00028093266
0.00024364575
0.00024364097
0.00024364086
0.00024364568
0.00023465043
0.00023464384
0.00023464364
0.00023465026
0.00025159112
0.00025158302
0.00025158272
0.00025159086
0.00029294193
0.0002929325
0.00029293206
0.00029294151
0.00035823073
0.00035822017
0.0003582196
0.0003582301
0.00044809222
0.00044808067
0.00044807994
0.00044809149
0.00056423508
0.00056422256
0.00056422166
0.00056423418
0.00070937047
0.00070935699
0.00070935587
0.00070936922
0.00088712574
0.00088711137
0.00088710995
0.00088712425
0.0011019547
0.0011019394
0.0011019377
0.0011019529
0.0013590446
0.0013590285
0.0013590264
0.0013590425
0.0016642204
0.0016642035
0.0016642008
0.0016642179
0.0020238402
0.0020238226
0.0020238194
0.0020238374
0.0024446785
0.0024446603
0.0024446562
0.0024446755
0.0029337906
0.0029337718
0.0029337677
0.0029337867
0.0034983556
0.0034983363
0.0034983314
0.0034983507
0.0041454905
0.0041454714
0.0041454652
0.0041454856
0.0048820417
0.004882023
0.0048820167
0.0048820374
0.0057143492
0.0057143305
0.0057143227
0.0057143441
0.006647979
0.0066479613
0.0066479526
0.0066479736
0.0076874474
0.0076874311
0.0076874222
0.0076874425
0.0088359282
0.0088359129
0.0088359025
0.0088359224
0.010094952
0.010094939
0.010094928
0.010094947
0.011464123
0.011464112
0.011464101
0.011464119
0.012940848
0.012940839
0.012940828
0.012940844
0.014520101
0.014520094
0.014520082
0.014520098
0.016194235
0.016194231
0.01619422
0.016194234
0.017952861
0.017952856
0.017952845
0.017952861
0.019782776
0.019782777
0.019782765
0.019782778
0.021668023
0.021668024
0.021668014
0.021668019
0.023589972
0.023589977
0.023589967
0.023589976
0.025527581
0.02552759
0.025527581
0.025527586
0.027457686
0.027457686
0.027457679
0.02745768
0.029355388
0.029355391
0.029355386
0.02935539
0.031194623
0.031194629
0.031194626
0.031194627
0.032948668
0.032948669
0.032948662
0.032948668
0.034590779
0.034590782
0.034590777
0.034590775
0.036094901
0.036094897
0.036094894
0.036094891
0.037436311
0.037436307
0.037436305
0.037436302
0.038592308
0.038592309
0.038592307
0.0385923
0.039542866
0.03954285
0.039542855
0.039542851
0.040271175
0.040271156
0.040271172
0.040271152
0.04076417
0.040764174
0.040764189
0.040764159
0.041012927
0.041012948
0.041012982
0.041012928
0.033161826
0.03316182
0.033161821
0.03316182
0.0043687395
0.0043687561
0.0043687565
0.0043687385
-0.0013314649
-0.0013314444
-0.0013314455
-0.0013314628
-0.0011318707
-0.0011318559
-0.0011318565
-0.0011318684
-0.0001979687
-0.00019796976
-0.0001979708
-0.00019796577
0.00052069665
0.00052068378
0.0005206831
0.00052069807
0.00095519454
0.000955182
0.00095518167
0.00095519428
0.0011504383
0.0011504306
0.0011504304
0.0011504373
0.0011673857
0.0011673832
0.0011673832
0.0011673846
0.0010698912
0.0010698929
0.001069893
0.0010698903
0.00091434135
0.00091434537
0.00091434558
0.00091434064
0.00074311881
0.00074312335
0.00074312349
0.00074311833
0.00058351654
0.00058352018
0.00058352032
0.00058351632
0.00045023529
0.00045023708
0.0004502372
0.00045023519
0.00034916194
0.0003491615
0.00034916155
0.00034916191
0.00028093266
0.00028092997
0.00028092995
0.00028093264
0.00024364572
0.00024364096
0.00024364085
0.00024364564
0.0002346504
0.00023464383
0.00023464364
0.00023465023
0.00025159112
0.00025158299
0.00025158276
0.00025159085
0.00029294194
0.00029293254
0.0002929321
0.00029294151
0.00035823073
0.00035822023
0.00035821961
0.00035823016
0.00044809234
0.00044808073
0.00044808008
0.00044809155
0.00056423527
0.0005642227
0.00056422187
0.00056423424
0.00070937052
0.00070935712
0.00070935595
0.00070936935
0.00088712585
0.00088711151
0.0008871101
0.00088712444
0.0011019549
0.0011019396
0.0011019379
0.0011019532
0.0013590449
0.0013590287
0.0013590266
0.0013590427
0.0016642206
0.0016642037
0.0016642011
0.0016642181
0.0020238404
0.0020238228
0.0020238196
0.0020238376
0.0024446788
0.0024446607
0.0024446565
0.0024446757
0.0029337907
0.002933772
0.0029337679
0.0029337876
0.0034983556
0.0034983363
0.0034983314
0.0034983514
0.0041454905
0.0041454714
0.0041454652
0.0041454856
0.0048820424
0.0048820237
0.0048820167
0.0048820374
0.0057143499
0.0057143312
0.0057143234
0.0057143441
0.006647979
0.0066479613
0.0066479533
0.0066479736
0.0076874474
0.007687431
0.0076874222
0.0076874425
0.0088359282
0.0088359129
0.0088359025
0.0088359224
0.010094952
0.010094939
0.010094928
0.010094947
0.011464123
0.011464112
0.011464101
0.011464119
0.012940848
0.012940839
0.012940828
0.012940844
0.014520101
0.014520094
0.014520082
0.014520097
0.016194235
0.016194232
0.016194219
0.016194234
0.017952859
0.017952855
0.017952843
0.01795286
0.019782774
0.019782775
0.019782763
0.019782777
0.021668023
0.021668024
0.021668014
0.021668019
0.023589979
0.023589977
0.023589967
0.023589976
0.025527581
0.02552759
0.025527581
0.025527586
0.02745768
0.027457686
0.027457679
0.02745768
0.029355388
0.029355391
0.029355386
0.02935539
0.031194623
0.031194629
0.031194626
0.031194627
0.032948661
0.032948669
0.032948662
0.032948661
0.034590773
0.034590782
0.03459077
0.034590775
0.036094901
0.036094897
0.036094894
0.036094898
0.037436318
0.037436307
0.037436304
0.037436302
0.038592315
0.038592302
0.038592307
0.0385923
0.039542866
0.03954285
0.039542861
0.039542844
0.040271175
0.040271163
0.040271172
0.040271152
0.04076417
0.040764174
0.040764189
0.040764165
0.041012927
0.041012948
0.041012982
0.041012928
0.033161821
0.033161817
0.033161818
0.033161815
0.0043687385
0.0043687557
0.0043687561
0.004368738
-0.0013314618
-0.0013314422
-0.0013314432
-0.0013314596
-0.0011318683
-0.0011318536
-0.0011318543
-0.0011318662
-0.00019796527
-0.00019796733
-0.00019796848
-0.00019796233
0.00052069818
0.00052068492
0.00052068427
0.00052069938
0.00095519426
0.00095518166
0.00095518135
0.00095519382
0.0011504373
0.0011504296
0.0011504296
0.0011504362
0.0011673845
0.0011673822
0.0011673822
0.0011673834
0.0010698901
0.0010698919
0.001069892
0.0010698892
0.00091434051
0.00091434462
0.00091434477
0.00091433973
0.0007431182
0.00074312279
0.000743123
0.00074311776
0.0005835162
0.00058351984
0.00058352004
0.00058351601
0.00045023512
0.00045023691
0.00045023702
0.00045023503
0.00034916188
0.00034916144
0.00034916149
0.00034916187
0.00028093268
0.00028092997
0.00028092995
0.00028093266
0.00024364575
0.00024364097
0.00024364086
0.00024364568
0.00023465043
0.00023464384
0.00023464364
0.00023465026
0.00025159112
0.00025158302
0.00025158272
0.00025159086
0.00029294193
0.0002929325
0.00029293206
0.00029294151
0.00035823073
0.00035822017
0.0003582196
0.0003582301
0.00044809222
0.00044808067
0.00044807994
0.00044809149
0.00056423508
0.00056422256
0.00056422166
0.00056423418
0.00070937047
0.00070935699
0.00070935587
0.00070936922
0.00088712574
0.00088711137
0.00088710995
0.00088712425
0.0011019547
0.0011019394
0.0011019377
0.0011019529
0.0013590446
0.0013590285
0.0013590264
0.0013590425
0.0016642204
0.0016642035
0.0016642008
0.0016642179
0.0020238402
0.0020238226
0.0020238194
0.0020238374
0.0024446785
0.0024446603
0.0024446562
0.0024446755
0.0029337906
0.0029337718
0.0029337677
0.0029337867
0.0034983556
0.0034983363
0.0034983314
0.0034983507
0.0041454905
0.0041454714
0.0041454652
0.0041454856
0.0048820417
0.004882023
0.0048820167
0.0048820374
0.0057143492
0.0057143305
0.0057143227
0.0057143441
0.006647979
0.0066479613
0.0066479526
0.0066479736
0.0076874474
0.0076874311
0.0076874222
0.0076874425
0.0088359282
0.0088359129
0.0088359025
0.0088359224
0.010094952
0.010094939
0.010094928
0.010094947
0.011464123
0.011464112
0.011464101
0.011464119
0.012940848
0.012940839
0.012940828
0.012940844
0.014520101
0.014520094
0.014520082
0.014520098
0.016194235
0.016194231
0.01619422
0.016194234
0.017952861
0.017952856
0.017952845
0.017952861
0.019782776
0.019782777
0.019782765
0.019782778
0.021668023
0.021668024
0.021668014
0.021668019
0.023589972
0.023589977
0.023589967
0.023589976
0.025527581
0.02552759
0.025527581
0.025527586
0.027457686
0.027457686
0.027457679
0.02745768
0.029355388
0.029355391
0.029355386
0.02935539
0.031194623
0.031194629
0.031194626
0.031194627
0.032948668
0.032948669
0.032948662
0.032948668
0.034590779
0.034590782
0.034590777
0.034590775
0.036094901
0.036094897
0.036094894
0.036094891
0.037436311
0.037436307
0.037436305
0.037436302
0.038592308
0.038592309
0.038592307
0.0385923
0.039542866
0.03954285
0.039542855
0.039542851
0.040271175
0.040271156
0.040271172
0.040271152
0.04076417
0.040764174
0.040764189
0.040764159
0.041012927
0.041012948
0.041012982
0.041012928
)
;

boundaryField
{
    movingWall
    {
        type            calculated;
        value           nonuniform List<scalar> 
16
(
0.041075397
0.041075397
0.041075397
0.041075397
0.041075424
0.041075424
0.041075424
0.041075424
0.041075478
0.041075478
0.041075478
0.041075478
0.041075397
0.041075397
0.041075397
0.041075397
)
;
    }
    CPLReceiveMD
    {
        type            calculated;
        value           nonuniform List<scalar> 
16
(
0.056554501
0.056554499
0.056554501
0.056554499
0.056554475
0.056554474
0.056554477
0.056554474
0.056554477
0.056554474
0.056554477
0.056554474
0.056554498
0.056554493
0.056554496
0.056554493
)
;
    }
    streamwiseIn
    {
        type            cyclic;
    }
    streamwiseOut
    {
        type            cyclic;
    }
    front
    {
        type            cyclic;
    }
    back
    {
        type            cyclic;
    }
}


// ************************************************************************* //
