/*--------------------------------*- C++ -*----------------------------------*\
| =========                 |                                                 |
| \\      /  F ield         | OpenFOAM: The Open Source CFD Toolbox           |
|  \\    /   O peration     | Version:  3.0.x                                 |
|   \\  /    A nd           | Web:      www.OpenFOAM.org                      |
|    \\/     M anipulation  |                                                 |
\*---------------------------------------------------------------------------*/
FoamFile
{
    version     2.0;
    format      ascii;
    class       volScalarField;
    location    "125";
    object      sigmaxz;
}
// * * * * * * * * * * * * * * * * * * * * * * * * * * * * * * * * * * * * * //

dimensions      [0 2 -2 0 0 0 0];

internalField   nonuniform List<scalar> 
960
(
-1.8764628e-13
-3.0154929e-12
1.8764628e-13
3.0154935e-12
-2.468277e-13
-1.9853528e-11
2.4682785e-13
3.2101265e-12
-2.7200261e-13
-2.637193e-12
2.7200261e-13
2.6371927e-12
-2.1034167e-13
-1.8527418e-11
2.1034167e-13
1.8527418e-11
-1.3724264e-13
-1.1305937e-12
1.3724264e-13
1.1305934e-12
-1.0485458e-13
-5.0921797e-13
1.0485458e-13
5.0921739e-13
-1.0539625e-13
-1.0202771e-13
1.0539625e-13
1.0202771e-13
-1.1943653e-13
1.3114584e-13
1.1943653e-13
-1.3114584e-13
-1.3132494e-13
2.375749e-13
1.3132479e-13
-2.375749e-13
-1.3692548e-13
2.5973393e-13
1.3692548e-13
-2.5973407e-13
-1.3392384e-13
2.4097831e-13
1.3392384e-13
-2.4097831e-13
-1.2408215e-13
2.0518668e-13
1.2408215e-13
-2.0518675e-13
-1.1053625e-13
1.6515607e-13
1.1053625e-13
-1.6515607e-13
-9.5096089e-14
1.2773926e-13
1.7594362e-12
-1.2773927e-13
-7.968103e-14
9.5638477e-14
7.9681035e-14
-9.5638473e-14
-6.5098661e-14
6.954304e-14
6.5098661e-14
-6.9543004e-14
-5.1973192e-14
4.9324072e-14
5.1973192e-14
-4.9324035e-14
-4.067487e-14
3.4210062e-14
4.0674833e-14
-3.4210062e-14
-3.1225428e-14
2.3120015e-14
3.1225428e-14
-2.3119978e-14
-2.3545931e-14
1.5252612e-14
2.3545859e-14
-1.5252612e-14
-1.7446385e-14
9.7533478e-15
1.7446312e-14
-9.7534206e-15
-1.2708171e-14
5.9536055e-15
1.2708171e-14
-5.9535328e-15
-9.1056347e-15
3.4206142e-15
9.1056347e-15
-3.4204687e-15
-6.4100789e-15
1.7437715e-15
6.4100789e-15
-1.743626e-15
-4.3989859e-15
6.9510367e-16
4.3989859e-15
-6.9510367e-16
-2.9377116e-15
7.1537209e-17
2.9377116e-15
-7.1391704e-17
-1.9033569e-15
-2.757299e-16
1.9033569e-15
2.757299e-16
-1.187688e-15
-4.4420465e-16
1.187688e-15
4.4449566e-16
-7.0309665e-16
-5.028624e-16
7.0309665e-16
5.0315341e-16
-3.8390655e-16
-4.9585477e-16
3.8332453e-16
4.970188e-16
-1.8023237e-16
-4.552773e-16
1.7965036e-16
4.552773e-16
-5.4014029e-17
-3.9765412e-16
5.4014029e-17
3.9823614e-16
1.8559856e-17
-3.3586614e-16
-1.7395822e-17
3.3703018e-16
5.6514118e-17
-2.7838241e-16
-5.5350084e-17
2.7838241e-16
7.2523322e-17
-2.2564846e-16
-7.1359288e-17
2.2564846e-16
7.5363502e-17
-1.8014157e-16
-7.5363502e-17
1.8014157e-16
7.1155318e-17
-1.3957552e-16
-7.1155318e-17
1.3957552e-16
6.5620061e-17
-1.1053602e-16
-6.0963925e-17
1.1053602e-16
5.4116253e-17
-8.543291e-17
-5.1788185e-17
8.543291e-17
4.2448308e-17
-6.335212e-17
-4.4776375e-17
6.5680188e-17
3.624227e-17
-5.0011574e-17
-3.624227e-17
5.0011574e-17
2.8600647e-17
-3.3216334e-17
-3.3256783e-17
4.2528605e-17
2.1756383e-17
-2.9399449e-17
-2.1756383e-17
2.9399449e-17
1.5815004e-17
-1.8980385e-17
-1.5815004e-17
2.3636521e-17
1.1315496e-17
-1.9618634e-17
-1.1315496e-17
1.9618634e-17
1.6627754e-17
-1.733971e-17
-7.3154823e-18
1.733971e-17
4.4487379e-18
-1.5154275e-17
-4.4487379e-18
1.5154275e-17
2.2880233e-18
-1.2124587e-17
-2.2880233e-18
1.2124587e-17
1.5227725e-18
1.3556547e-18
-1.5227725e-18
7.9566171e-18
1.7886034e-18
-4.496385e-18
-1.7886034e-18
4.496385e-18
1.9683459e-18
-2.5444684e-18
-1.9683459e-18
2.5444684e-18
9.988143e-19
1.8853596e-17
-9.988143e-19
-2.2905265e-19
5.3174736e-19
3.7474402e-18
-5.3174736e-19
-3.7474402e-18
-1.8557247e-17
2.5373492e-17
-6.7296595e-20
-6.7489482e-18
-1.7572152e-17
8.2707391e-18
-1.0523921e-18
-8.2707391e-18
1.3951126e-18
2.7277766e-17
-1.3951126e-18
-8.6532227e-18
1.9834772e-17
9.8216087e-18
-1.210228e-18
-9.8216087e-18
1.7283981e-18
3.178332e-17
-1.7283981e-18
-1.3158777e-17
1.8552611e-18
1.4043866e-17
-1.8552611e-18
-1.4043866e-17
6.5557694e-19
2.7787472e-17
-6.5557694e-19
-9.1629288e-18
-3.0465047e-12
3.0558317e-10
3.0465047e-12
-3.0558317e-10
-3.5202725e-12
4.6049495e-10
3.5202725e-12
-4.4385155e-10
-3.5033631e-12
2.9899596e-10
2.0146764e-11
-2.9899596e-10
-2.9581915e-12
1.9644258e-10
2.9581915e-12
-1.9644258e-10
-2.114672e-12
1.0957257e-10
1.8758073e-11
-1.2621597e-10
-1.2645457e-12
6.8391487e-11
1.2645457e-12
-6.8391486e-11
-6.4947213e-13
3.6198179e-11
6.4947213e-13
-3.6198179e-11
-2.5872971e-13
2.6792631e-11
2.5873e-13
-2.6792631e-11
-3.7352807e-14
4.7507118e-12
3.7352952e-14
-4.7507118e-12
7.182127e-14
1.867767e-12
-7.182127e-14
-1.867767e-12
1.1357324e-13
4.4268112e-13
-1.1357331e-13
-4.4268119e-13
1.6762988e-11
-1.9008429e-13
-1.1958593e-13
1.9008436e-13
1.0862815e-13
-4.1856906e-13
-1.0862815e-13
4.1856906e-13
9.1126784e-14
-4.5637838e-13
-9.1126784e-14
2.1207185e-12
7.2534107e-14
-4.1371493e-13
-7.2534103e-14
4.1371493e-13
5.5448324e-14
-3.4473737e-13
-5.5448324e-14
3.4473735e-13
4.1154242e-14
-1.9386344e-12
-4.1154205e-14
2.7429429e-13
2.9965146e-14
-2.1180323e-13
-1.6943053e-12
2.1180323e-13
2.1253854e-14
-1.603374e-13
-2.1253854e-14
1.603374e-13
1.4905131e-14
-1.1938049e-13
-1.4905131e-14
1.1938049e-13
1.0192835e-14
-8.7686779e-14
-1.0192762e-14
8.7686779e-14
6.7271131e-15
-6.3871636e-14
-6.7270403e-15
6.3871563e-14
4.2879061e-15
-4.6084381e-14
-4.2879061e-15
4.6084236e-14
2.6074718e-15
-3.3105259e-14
-2.6074718e-15
3.3105114e-14
1.6346417e-15
-2.3630766e-14
-1.6346417e-15
2.3630766e-14
1.0271592e-15
-1.6762832e-14
-1.0271592e-15
1.6762686e-14
6.2690035e-16
-1.1836076e-14
-6.2690035e-16
1.1836076e-14
3.4753253e-16
-8.3201962e-15
-3.4753253e-16
8.3201962e-15
1.7656485e-16
-5.8238065e-15
-1.7656485e-16
5.8238065e-15
5.5329324e-17
-4.0606158e-15
-5.4747307e-17
4.0600338e-15
-1.4885858e-17
-2.8198509e-15
1.4885858e-17
2.8198509e-15
-5.0358439e-17
-1.9519939e-15
5.0358439e-17
1.9514119e-15
-6.7003167e-17
-1.34668e-15
6.5839133e-17
1.345516e-15
-6.952548e-17
-9.2428747e-16
6.952548e-17
9.2428747e-16
-6.6356742e-17
-6.3232709e-16
6.6356742e-17
6.3232709e-16
-5.9715692e-17
-4.3087799e-16
5.9715692e-17
4.3087799e-16
-5.1045978e-17
-2.9226347e-16
5.1045978e-17
2.9459154e-16
-4.4753962e-17
-1.9739512e-16
4.2425894e-17
1.9739512e-16
-3.4668904e-17
-1.3284064e-16
3.4668904e-17
1.3284064e-16
-2.5552759e-17
-8.8639844e-17
2.7880826e-17
8.8639844e-17
-2.2025911e-17
-5.8848421e-17
2.2025911e-17
5.8848421e-17
-1.752219e-17
-3.8459236e-17
2.2178326e-17
3.8459236e-17
-1.4544669e-17
-2.4934533e-17
1.4544669e-17
2.4934533e-17
-1.2342791e-17
-1.5914374e-17
1.2342791e-17
1.5914374e-17
-1.063645e-17
-1.0301347e-17
1.063645e-17
1.0301347e-17
-9.6558092e-18
-7.4040086e-18
9.6558092e-18
7.4040086e-18
-9.9787145e-18
-6.0766655e-18
9.9787145e-18
6.0766655e-18
-9.6721146e-18
-5.288457e-18
9.6721146e-18
5.288457e-18
-9.5895315e-18
-4.8178566e-18
9.5895315e-18
4.8178566e-18
-9.0007146e-18
-4.333168e-18
9.0007146e-18
4.333168e-18
-9.5464892e-18
-4.1340855e-18
9.5464892e-18
4.1340855e-18
-1.0075225e-17
-3.7267224e-18
1.0075225e-17
3.7267224e-18
-1.0634965e-17
-2.8463411e-18
1.0634965e-17
2.8463411e-18
7.6206755e-18
-1.3395061e-18
1.1003868e-17
1.3395061e-18
8.327935e-18
-6.3198938e-19
1.0296609e-17
6.3198938e-19
-9.3970243e-18
2.149572e-18
-9.2275193e-18
-2.149572e-18
-9.7424171e-18
6.4672022e-18
9.7424171e-18
-6.4672022e-18
-9.1592656e-18
9.0439863e-18
9.1592656e-18
-2.766853e-17
-5.9116331e-18
9.0405461e-18
5.9116331e-18
-9.0405461e-18
-2.3439501e-18
5.7385505e-18
2.3439501e-18
-5.7385505e-18
1.876457e-13
3.0154929e-12
-1.876457e-13
-3.0154935e-12
2.468277e-13
1.9853528e-11
-2.468277e-13
-3.2101265e-12
2.7200261e-13
2.6371927e-12
-2.7200261e-13
-2.6371927e-12
2.1034167e-13
1.8527418e-11
-2.1034167e-13
-1.8527418e-11
1.3724264e-13
1.1305934e-12
-1.3724264e-13
-1.1305934e-12
1.0485458e-13
5.0921768e-13
-1.0485458e-13
-5.0921768e-13
1.0539625e-13
1.0202771e-13
-1.0539625e-13
-1.0202771e-13
1.1943653e-13
-1.3114584e-13
-1.1943653e-13
1.3114584e-13
1.3132479e-13
-2.375749e-13
-1.3132479e-13
2.375749e-13
1.3692548e-13
-2.5973393e-13
-1.3692548e-13
2.5973407e-13
1.3392384e-13
-2.4097824e-13
-1.3392384e-13
2.4097831e-13
1.2408215e-13
-2.0518668e-13
-1.2408215e-13
2.0518668e-13
1.1053625e-13
-1.6515607e-13
-1.1053625e-13
1.6515607e-13
9.509608e-14
-1.2773927e-13
-1.7594362e-12
1.2773927e-13
7.9681035e-14
-9.5638477e-14
-7.9681035e-14
9.5638473e-14
6.5098661e-14
-6.9543022e-14
-6.5098661e-14
6.9543004e-14
5.1973156e-14
-4.9324035e-14
-5.1973192e-14
4.9323999e-14
4.067487e-14
-3.4210062e-14
-4.067487e-14
3.4210026e-14
3.1225428e-14
-2.3120015e-14
-3.1225428e-14
2.3119978e-14
2.3545859e-14
-1.5252612e-14
-2.3545859e-14
1.5252612e-14
1.7446312e-14
-9.7532751e-15
-1.7446312e-14
9.7532751e-15
1.2708171e-14
-5.9535328e-15
-1.2708171e-14
5.9535328e-15
9.1056347e-15
-3.4204687e-15
-9.1056347e-15
3.4204687e-15
6.4100789e-15
-1.743626e-15
-6.4100789e-15
1.743626e-15
4.3989859e-15
-6.9510367e-16
-4.3989859e-15
6.9510367e-16
2.9377115e-15
-7.1391704e-17
-2.9377115e-15
7.1391704e-17
1.9033569e-15
2.7573007e-16
-1.9033569e-15
-2.7573007e-16
1.187688e-15
4.4449567e-16
-1.187688e-15
-4.4449567e-16
7.0309665e-16
5.0257139e-16
-7.0309665e-16
-5.0315341e-16
3.8390655e-16
4.9643678e-16
-3.8390655e-16
-4.970188e-16
1.7965036e-16
4.552773e-16
-1.7965036e-16
-4.552773e-16
5.4014029e-17
3.9823614e-16
-5.4014029e-17
-3.9823614e-16
-1.7395805e-17
3.3703016e-16
1.8559839e-17
-3.3703016e-16
-5.6514118e-17
2.7838239e-16
5.6514118e-17
-2.7838239e-16
-7.2523322e-17
2.2564844e-16
7.2523322e-17
-2.2564844e-16
-7.5363486e-17
1.8014157e-16
7.5363486e-17
-1.8014157e-16
-7.1155318e-17
1.4190359e-16
7.1155318e-17
-1.4190359e-16
-6.3291993e-17
1.1053602e-16
6.3291993e-17
-1.1053602e-16
-5.4116236e-17
8.543291e-17
5.4116236e-17
-8.543291e-17
-4.7104443e-17
6.3352137e-17
4.4776375e-17
-6.5680205e-17
-3.624227e-17
5.0011574e-17
3.624227e-17
-5.0011574e-17
-2.8600645e-17
3.7872468e-17
2.8600645e-17
-4.2528604e-17
-2.1756383e-17
2.9399449e-17
2.1756383e-17
-2.9399449e-17
-1.5815003e-17
2.3636519e-17
1.5815003e-17
-2.3636519e-17
-1.1315494e-17
1.9618634e-17
1.1315494e-17
-1.9618634e-17
-7.3154806e-18
1.7339708e-17
7.3154806e-18
-1.7339708e-17
-4.4487363e-18
1.5154275e-17
4.4487363e-18
-1.5154275e-17
-2.2880217e-18
1.2124586e-17
2.2880217e-18
-1.2124586e-17
-1.5227705e-18
7.9566169e-18
1.5227705e-18
-7.9566169e-18
-1.7886013e-18
4.496385e-18
1.7886013e-18
-4.496385e-18
-1.9683439e-18
2.5444684e-18
1.9683439e-18
-2.5444684e-18
-9.9881197e-19
-2.2905248e-19
9.9881197e-19
2.2905248e-19
-5.3174536e-19
-3.7474402e-18
5.3174536e-19
3.7474402e-18
-6.7294265e-20
-6.7489479e-18
6.7294265e-20
6.7489479e-18
-1.0523904e-18
-8.2707388e-18
1.0523904e-18
8.2707388e-18
-1.395111e-18
-8.6532225e-18
1.395111e-18
8.6532225e-18
-1.2102265e-18
8.8029352e-18
1.2102265e-18
9.8216084e-18
-1.7283971e-18
-1.3158777e-17
1.7283971e-18
3.178332e-17
-1.8552602e-18
-1.4043866e-17
1.8552602e-18
1.4043866e-17
-6.5557655e-19
-9.162929e-18
6.5557655e-19
9.162929e-18
3.0465047e-12
-3.0558317e-10
-3.0465053e-12
3.0558317e-10
3.5202725e-12
-4.6049495e-10
-3.5202726e-12
4.4385155e-10
3.5033631e-12
-2.9899596e-10
-2.0146764e-11
2.9899596e-10
2.9581915e-12
-1.9644258e-10
-2.9581915e-12
1.9644258e-10
2.114672e-12
-1.0957257e-10
-1.8758073e-11
1.2621597e-10
1.2645454e-12
-6.8391487e-11
-1.2645457e-12
6.8391486e-11
6.4947184e-13
-3.6198179e-11
-6.4947213e-13
3.6198179e-11
2.5872971e-13
-2.6792631e-11
-2.5873e-13
2.6792631e-11
3.7352952e-14
-4.7507118e-12
-3.7352952e-14
4.7507117e-12
-7.182127e-14
-1.867767e-12
7.182127e-14
1.8677668e-12
-1.1357324e-13
-4.4268119e-13
1.1357331e-13
4.4268119e-13
-1.6762988e-11
1.9008429e-13
1.1958593e-13
-1.9008429e-13
-1.0862815e-13
4.1856906e-13
1.0862815e-13
-4.185691e-13
-9.1126784e-14
4.5637838e-13
9.1126775e-14
-2.1207185e-12
-7.2534107e-14
4.1371493e-13
7.2534107e-14
-4.1371493e-13
-5.5448306e-14
3.4473735e-13
5.5448324e-14
-3.4473735e-13
-4.1154205e-14
1.9386344e-12
4.1154205e-14
-2.7429426e-13
-2.996511e-14
2.1180323e-13
1.6943053e-12
-2.1180319e-13
-2.1253854e-14
1.603374e-13
2.1253854e-14
-1.6033737e-13
-1.4905059e-14
1.1938049e-13
1.4905131e-14
-1.1938049e-13
-1.0192762e-14
8.7686706e-14
1.0192762e-14
-8.7686633e-14
-6.7270403e-15
6.3871563e-14
6.7270403e-15
-6.3871563e-14
-4.2879061e-15
4.6084236e-14
4.2879061e-15
-4.6084236e-14
-2.6073263e-15
3.3105114e-14
2.6074718e-15
-3.3105114e-14
-1.6344962e-15
2.3630766e-14
1.6346417e-15
-2.3630766e-14
-1.0270137e-15
1.6762686e-14
1.0271592e-15
-1.6762541e-14
-6.2690035e-16
1.1836076e-14
6.2690035e-16
-1.1836076e-14
-3.4724152e-16
8.3201962e-15
3.4753253e-16
-8.3199052e-15
-1.7656485e-16
5.8240975e-15
1.7656485e-16
-5.8238065e-15
-5.5329324e-17
4.0600338e-15
5.5329324e-17
-4.0594518e-15
1.5467875e-17
2.8198511e-15
-1.4885858e-17
-2.8198511e-15
5.0940456e-17
1.9514119e-15
-5.0358439e-17
-1.9508298e-15
6.5839133e-17
1.345516e-15
-6.5839133e-17
-1.345516e-15
6.952548e-17
9.2428764e-16
-6.952548e-17
-9.2312361e-16
6.6356742e-17
6.3232709e-16
-6.6356742e-17
-6.3116306e-16
6.0879726e-17
4.3087799e-16
-5.9715692e-17
-4.3087799e-16
5.1045978e-17
2.9226346e-16
-5.1045978e-17
-2.9226346e-16
4.4753946e-17
1.9739512e-16
-4.2425878e-17
-1.9739512e-16
3.4668904e-17
1.3284064e-16
-3.4668904e-17
-1.3284064e-16
3.0208894e-17
8.863986e-17
-2.5552759e-17
-8.863986e-17
2.2025927e-17
5.8848421e-17
-2.2025927e-17
-5.8848421e-17
1.752219e-17
3.8459236e-17
-1.752219e-17
-3.8459236e-17
1.9200804e-17
2.4934533e-17
-1.4544669e-17
-2.0278397e-17
1.6998931e-17
1.5914374e-17
-1.2342795e-17
-1.5914374e-17
1.5292588e-17
1.0301347e-17
-5.9803158e-18
-5.6452109e-18
9.6558108e-18
7.4040086e-18
-9.6558108e-18
-7.4040086e-18
9.9787161e-18
6.0766645e-18
-9.9787161e-18
3.2356073e-18
9.672118e-18
5.2884568e-18
-9.672118e-18
-5.2884568e-18
1.8901805e-17
4.8178565e-18
-2.7726152e-19
-4.8178565e-18
1.8312988e-17
4.333168e-18
-9.0007161e-18
-4.333168e-18
9.5464909e-18
4.1340856e-18
-9.5464909e-18
5.1781862e-18
1.0075226e-17
3.7267229e-18
-1.0075226e-17
-3.7267229e-18
1.0634966e-17
2.8463415e-18
-1.0634966e-17
-2.8463415e-18
1.1003869e-17
1.3395063e-18
-1.1003869e-17
-1.3395063e-18
1.029661e-17
6.319897e-19
-1.029661e-17
-6.319897e-19
9.3970256e-18
-2.1495718e-18
9.227518e-18
2.0774115e-17
9.7424183e-18
-2.5091746e-17
-9.7424183e-18
2.5091746e-17
9.1592666e-18
-9.0439863e-18
-9.1592666e-18
9.0439863e-18
5.9116339e-18
-9.0405461e-18
1.271291e-17
9.0405461e-18
2.3439503e-18
-5.7385505e-18
1.6280593e-17
5.7385505e-18
)
;

boundaryField
{
    movingWall
    {
        type            calculated;
        value           nonuniform List<scalar> 
16
(
6.5557694e-19
-2.3439501e-18
-6.5557655e-19
2.3439503e-18
2.7787472e-17
5.7385505e-18
-9.162929e-18
-5.7385505e-18
-6.5557694e-19
2.3439501e-18
6.5557655e-19
1.6280593e-17
-9.1629288e-18
-5.7385505e-18
9.162929e-18
5.7385505e-18
)
;
    }
    CPLReceiveMD
    {
        type            calculated;
        value           nonuniform List<scalar> 
16
(
-1.8764628e-13
-3.0465047e-12
1.876457e-13
3.0465047e-12
-3.0154929e-12
3.0558317e-10
3.0154929e-12
-3.0558317e-10
1.8764628e-13
3.0465047e-12
-1.876457e-13
-3.0465053e-12
3.0154935e-12
-3.0558317e-10
-3.0154935e-12
3.0558317e-10
)
;
    }
    streamwiseIn
    {
        type            cyclic;
    }
    streamwiseOut
    {
        type            cyclic;
    }
    front
    {
        type            cyclic;
    }
    back
    {
        type            cyclic;
    }
}


// ************************************************************************* //
