/*--------------------------------*- C++ -*----------------------------------*\
| =========                 |                                                 |
| \\      /  F ield         | OpenFOAM: The Open Source CFD Toolbox           |
|  \\    /   O peration     | Version:  3.0.x                                 |
|   \\  /    A nd           | Web:      www.OpenFOAM.org                      |
|    \\/     M anipulation  |                                                 |
\*---------------------------------------------------------------------------*/
FoamFile
{
    version     2.0;
    format      ascii;
    class       volScalarField;
    location    "125";
    object      sigmaxx;
}
// * * * * * * * * * * * * * * * * * * * * * * * * * * * * * * * * * * * * * //

dimensions      [0 2 -2 0 0 0 0];

internalField   nonuniform List<scalar> 
960
(
6.257686e-10
-2.4247052e-09
3.0158319e-09
3.1312664e-09
2.4978684e-09
1.7649556e-09
-1.9735294e-09
-1.3136157e-09
6.2851987e-09
6.426812e-09
-6.8753971e-09
-6.0550789e-09
1.0554732e-08
1.1025544e-08
-1.1041024e-08
-1.0703862e-08
1.0869505e-08
1.1597883e-08
-1.1005856e-08
-1.1352264e-08
5.4030643e-09
6.6467911e-09
-5.5145414e-09
-6.4888037e-09
-9.3875423e-10
3.0982062e-10
8.4651809e-10
-2.3043137e-10
-5.890751e-09
-4.8950407e-09
5.8050741e-09
4.9077736e-09
-8.8906073e-09
-8.2599738e-09
8.8022156e-09
8.2199905e-09
-1.0071243e-08
-9.7977636e-09
9.9783761e-09
9.7198775e-09
-9.8146742e-09
-9.785423e-09
9.7189971e-09
9.6832628e-09
-8.6347774e-09
-8.7956762e-09
8.5387826e-09
8.6805575e-09
-7.0537479e-09
-7.3583285e-09
6.9596365e-09
7.23873e-09
-5.46135e-09
-5.8233443e-09
5.3705841e-09
5.7049501e-09
-4.1020572e-09
-4.4818966e-09
4.0153124e-09
4.3680239e-09
-3.0816272e-09
-3.4659575e-09
2.998863e-09
3.3581253e-09
-2.4194762e-09
-2.8128051e-09
2.3401759e-09
2.7113022e-09
-2.0855448e-09
-2.4994786e-09
2.008993e-09
2.4038616e-09
-2.0144266e-09
-2.4771825e-09
1.9399106e-09
2.3866742e-09
-2.1493654e-09
-2.666971e-09
2.0763267e-09
2.5807397e-09
-2.3791355e-09
-3.0457713e-09
2.3072467e-09
2.9631058e-09
-2.6993288e-09
-3.5061955e-09
2.6284986e-09
3.4265982e-09
-3.0262905e-09
-4.0323835e-09
2.9566425e-09
3.9555992e-09
-3.3233749e-09
-4.5666854e-09
3.2552153e-09
4.4926901e-09
-3.5561097e-09
-5.0979443e-09
3.4898805e-09
5.0268964e-09
-3.7139175e-09
-5.5721312e-09
3.650148e-09
5.5043204e-09
-3.7431669e-09
-6.0027109e-09
3.6824315e-09
5.9385301e-09
-3.6135282e-09
-6.3148431e-09
3.5564076e-09
6.2547497e-09
-3.2957391e-09
-6.5003908e-09
3.2427848e-09
6.4448536e-09
-2.8061182e-09
-6.5511209e-09
2.7578293e-09
6.500591e-09
-2.1402811e-09
-6.5030131e-09
2.0970878e-09
6.4579017e-09
-1.4288994e-09
-5.9925036e-09
1.3911497e-09
5.953161e-09
-2.0590199e-10
-5.6325373e-09
1.7385299e-10
5.5992428e-09
1.0819793e-09
-4.7493986e-09
-1.1081634e-09
4.7223474e-09
2.6502548e-09
-3.7798184e-09
-2.6705062e-09
3.7591182e-09
4.266682e-09
-2.4962693e-09
-4.2810285e-09
2.4819365e-09
5.9167294e-09
-6.7341429e-10
-5.9252921e-09
6.6537015e-10
7.5816253e-09
1.2453378e-09
-7.5846161e-09
-1.2472642e-09
9.4605456e-09
3.2564804e-09
-9.4582598e-09
-3.252552e-09
1.0861697e-08
5.7954497e-09
-1.0854508e-08
-5.7860188e-09
1.2200582e-08
8.4042025e-09
-1.2188931e-08
-8.3897035e-09
1.34481e-08
1.1283742e-08
-1.3432479e-08
-1.126468e-08
1.4354345e-08
1.4183887e-08
-1.4335282e-08
-1.4160826e-08
1.4672721e-08
1.6846739e-08
-1.4650758e-08
-1.6820277e-08
1.3052781e-08
1.8784861e-08
-1.3028443e-08
-1.8755608e-08
1.2812333e-08
2.1722983e-08
-1.2786082e-08
-2.1691521e-08
1.2397352e-08
2.2276289e-08
-1.2369557e-08
-2.2243139e-08
9.5998989e-09
2.2604422e-08
-9.5707905e-09
-2.2569996e-08
8.8819346e-09
2.4866845e-08
-8.8515642e-09
-2.4831412e-08
5.8410377e-09
2.2350639e-08
-5.8092494e-09
-2.2314294e-08
2.7424092e-09
2.166722e-08
-2.7088354e-09
-2.1629869e-08
-3.6088018e-10
1.8349128e-08
3.9678286e-10
-1.8310533e-08
-1.1940786e-09
1.4612801e-08
1.232935e-09
-1.4572673e-08
-4.1423796e-09
8.2762922e-09
4.1847031e-09
-8.2344816e-09
-6.9421386e-09
1.6496746e-09
6.9879861e-09
-1.6064387e-09
-7.3439395e-09
-7.3308295e-09
7.3927061e-09
7.3745665e-09
-9.7577849e-09
-1.173428e-08
9.8086924e-09
1.1777259e-08
-7.4401311e-09
-1.7624748e-08
7.4949365e-09
1.766234e-08
-6.7988124e-09
-1.714007e-08
6.8395122e-09
1.7175607e-08
-3.8092759e-09
-1.1155235e-08
3.8341379e-09
1.1193177e-08
-2.0410964e-09
-2.4727877e-09
2.306342e-09
2.7985327e-09
3.5198447e-09
2.3681466e-09
-3.3896021e-09
-2.1767897e-09
7.3986313e-09
6.4309487e-09
-7.2560465e-09
-6.3004769e-09
1.1629466e-08
1.1222122e-08
-1.1477529e-08
-1.1074938e-08
1.1192722e-08
1.1550666e-08
-1.1054536e-08
-1.1418498e-08
5.4592262e-09
6.4366214e-09
-5.3605048e-09
-6.3305791e-09
-9.4889231e-10
1.1086195e-10
1.0025102e-09
-4.113377e-11
-5.8999778e-09
-5.0563369e-09
5.9090369e-09
5.0860528e-09
-8.9139045e-09
-8.3512737e-09
8.8842524e-09
8.3431397e-09
-1.008237e-08
-9.8291935e-09
1.0023418e-08
9.7897022e-09
-9.7891507e-09
-9.8084765e-09
9.7105912e-09
9.7457691e-09
-8.593794e-09
-8.8158184e-09
8.5037801e-09
8.7376211e-09
-7.0254872e-09
-7.3329856e-09
6.9302616e-09
7.2455877e-09
-5.4362023e-09
-5.7971742e-09
5.3400277e-09
5.7052046e-09
-4.0791176e-09
-4.4582739e-09
3.9845452e-09
4.3648167e-09
-3.0642791e-09
-3.4472795e-09
2.9725524e-09
3.3541466e-09
-2.4088668e-09
-2.7986442e-09
2.3203548e-09
2.7067383e-09
-2.0785208e-09
-2.4935416e-09
1.9930831e-09
2.4032095e-09
-2.0080319e-09
-2.47421e-09
1.9253133e-09
2.3855166e-09
-2.1319823e-09
-2.6706297e-09
2.0515958e-09
2.5835561e-09
-2.3837167e-09
-3.0509626e-09
2.3053621e-09
2.9655238e-09
-2.6812875e-09
-3.5123887e-09
2.6048279e-09
3.4286916e-09
-3.029898e-09
-4.0391737e-09
2.9553762e-09
3.9574476e-09
-3.3263882e-09
-4.5737814e-09
3.2540127e-09
4.4943634e-09
-3.5585074e-09
-5.1051205e-09
3.4886191e-09
5.0284463e-09
-3.6934996e-09
-5.579183e-09
3.6265329e-09
5.5057744e-09
-3.722118e-09
-5.987284e-09
3.6585623e-09
5.9176942e-09
-3.5918382e-09
-6.2990015e-09
3.5322046e-09
6.2337806e-09
-3.2733954e-09
-6.5061986e-09
3.2181851e-09
6.4458804e-09
-2.8053003e-09
-6.5340618e-09
2.7549767e-09
6.479143e-09
-2.1387926e-09
-6.5073263e-09
2.0937618e-09
6.4582475e-09
-1.2048378e-09
-5.9958442e-09
1.1654325e-09
5.9529755e-09
1.8788849e-11
-5.6347427e-09
-5.2322429e-11
5.598372e-09
1.3072359e-09
-4.7503002e-09
-1.3347455e-09
4.7206237e-09
2.6540661e-09
-3.5573352e-09
-2.6754969e-09
3.5344541e-09
4.2708188e-09
-2.4940641e-09
-4.2862156e-09
2.4779771e-09
5.9210048e-09
-6.6942709e-10
-5.9305117e-09
6.6002895e-10
7.5858098e-09
1.2512312e-09
-7.5896666e-09
-1.2541496e-09
9.4643697e-09
3.2643669e-09
-9.4629066e-09
-3.2611202e-09
1.1086773e-08
5.8053688e-09
-1.1080401e-08
-5.7963699e-09
1.2424683e-08
8.4161337e-09
-1.2413882e-08
-8.4018847e-09
1.3670915e-08
1.1297587e-08
-1.3656216e-08
-1.1278668e-08
1.4353676e-08
1.4199456e-08
-1.4335641e-08
-1.4176506e-08
1.4448338e-08
1.708565e-08
-1.4427536e-08
-1.7059338e-08
1.3048366e-08
1.8802879e-08
-1.3025334e-08
-1.8773874e-08
1.2805947e-08
2.1741482e-08
-1.2781138e-08
-2.1710406e-08
1.238912e-08
2.2294604e-08
-1.2362863e-08
-2.2261987e-08
9.5901188e-09
2.4840874e-08
-9.5625797e-09
-2.4807106e-08
8.8710959e-09
2.4882276e-08
-8.8422266e-09
-2.4847563e-08
5.8298243e-09
2.2363141e-08
-5.7993319e-09
-2.2327479e-08
2.731681e-09
2.1675682e-08
-2.6990346e-09
-2.1638844e-08
-3.7013149e-10
1.8352402e-08
4.0564845e-10
-1.8313997e-08
-3.4199376e-09
1.2390658e-08
3.4590926e-09
-1.2350241e-08
-4.1456662e-09
8.266032e-09
4.1890118e-09
-8.2232814e-09
-6.9413073e-09
-5.8754006e-10
6.9887738e-09
6.3255449e-10
-7.3387683e-09
-5.1374162e-09
7.3894037e-09
5.1839497e-09
-7.5294951e-09
-1.17649e-08
7.5820567e-09
1.1811577e-08
-9.6479518e-09
-1.7648993e-08
9.6982587e-09
1.7695033e-08
-6.7885471e-09
-1.7157632e-08
6.8273723e-09
1.7193819e-08
-3.800669e-09
-1.1165181e-08
3.83366e-09
1.1188061e-08
-2.4774202e-09
-2.6166034e-09
2.5328263e-09
2.9496632e-09
2.5681414e-09
1.5854476e-09
-2.7004386e-09
-1.4819534e-09
7.319959e-09
6.2616824e-09
-7.3989382e-09
-6.2388162e-09
1.1325611e-08
1.0872167e-08
-1.1381435e-08
-1.0834793e-08
1.1174336e-08
1.1500168e-08
-1.1211856e-08
-1.1488116e-08
5.6057895e-09
6.5658158e-09
-5.6359888e-09
-6.5747578e-09
-8.1792176e-10
2.5766105e-10
7.8211984e-10
-2.9078051e-10
-5.7986774e-09
-4.9277489e-09
5.7480216e-09
4.8681209e-09
-8.8606105e-09
-8.2794584e-09
8.7943193e-09
8.1955656e-09
-1.0052671e-08
-9.8085882e-09
9.9737285e-09
9.7058977e-09
-9.8036026e-09
-9.7907882e-09
9.7164751e-09
9.6760487e-09
-8.6281682e-09
-8.8199026e-09
8.5375993e-09
8.6996994e-09
-7.0497181e-09
-7.3584266e-09
6.9592714e-09
7.2381035e-09
-5.4610254e-09
-5.8224115e-09
5.3729138e-09
5.7056275e-09
-4.1003978e-09
-4.4805037e-09
4.015671e-09
4.369314e-09
-3.0805138e-09
-3.4644447e-09
2.9993266e-09
3.3596221e-09
-2.4209282e-09
-2.8113554e-09
2.3428745e-09
2.7127778e-09
-2.0850062e-09
-2.5003987e-09
2.0094394e-09
2.4074177e-09
-2.014042e-09
-2.4760701e-09
1.9403018e-09
2.3878268e-09
-2.1490891e-09
-2.6660486e-09
2.0766593e-09
2.5816968e-09
-2.3789352e-09
-3.0450247e-09
2.3075245e-09
2.9638807e-09
-2.6991809e-09
-3.5056036e-09
2.628724e-09
3.4272157e-09
-3.0261804e-09
-4.0319241e-09
2.9568213e-09
3.9560819e-09
-3.3232927e-09
-4.5663334e-09
3.2553536e-09
4.493062e-09
-3.5560485e-09
-5.0976731e-09
3.4899857e-09
5.0271799e-09
-3.7138717e-09
-5.5719236e-09
3.6502288e-09
5.5045349e-09
-3.7431323e-09
-6.0025544e-09
3.6824936e-09
5.9386915e-09
-3.6135019e-09
-6.3147274e-09
3.556454e-09
6.254869e-09
-3.2957195e-09
-6.5003058e-09
3.2428196e-09
6.4449412e-09
-2.8061033e-09
-6.5510584e-09
2.7578558e-09
6.5006551e-09
-2.1402693e-09
-6.5029672e-09
2.0971075e-09
6.4579481e-09
-1.4288908e-09
-5.9924706e-09
1.3911641e-09
5.9531954e-09
-2.0589528e-10
-5.6325141e-09
1.7386405e-10
5.5992678e-09
1.0819844e-09
-4.7493815e-09
-1.108155e-09
4.7223651e-09
2.6502585e-09
-3.7798058e-09
-2.6705003e-09
3.7591305e-09
4.2666849e-09
-2.4962605e-09
-4.2810241e-09
2.4819451e-09
5.9167316e-09
-6.7340798e-10
-5.9252885e-09
6.6537659e-10
7.5816274e-09
1.2453426e-09
-7.5846136e-09
-1.2472593e-09
9.460547e-09
3.2564837e-09
-9.4582583e-09
-3.2525486e-09
1.0861698e-08
5.7954515e-09
-1.0854507e-08
-5.7860164e-09
1.2200583e-08
8.404204e-09
-1.2188929e-08
-8.3897019e-09
1.3448101e-08
1.1283743e-08
-1.3432479e-08
-1.126468e-08
1.4354345e-08
1.4183887e-08
-1.4335282e-08
-1.4160825e-08
1.4672721e-08
1.6846739e-08
-1.4650758e-08
-1.6820276e-08
1.3052782e-08
1.8784862e-08
-1.3028442e-08
-1.8755607e-08
1.2812333e-08
2.1722983e-08
-1.2786082e-08
-2.1691521e-08
1.2397352e-08
2.2276289e-08
-1.2369557e-08
-2.2243139e-08
9.5998989e-09
2.2604423e-08
-9.5707901e-09
-2.2569996e-08
8.8819346e-09
2.4866846e-08
-8.8515647e-09
-2.4831412e-08
5.8410377e-09
2.2350639e-08
-5.8092495e-09
-2.2314294e-08
2.7424092e-09
2.166722e-08
-2.708835e-09
-2.162987e-08
-3.6088017e-10
1.8349128e-08
3.9678286e-10
-1.8310533e-08
-1.1940786e-09
1.4612801e-08
1.232935e-09
-1.4572673e-08
-4.1423796e-09
8.2762922e-09
4.1847032e-09
-8.2344816e-09
-6.9421386e-09
1.6496745e-09
6.9879861e-09
-1.6064386e-09
-7.3439394e-09
-7.3308295e-09
7.392706e-09
7.3745665e-09
-9.7577849e-09
-1.173428e-08
9.8086923e-09
1.177726e-08
-7.4401312e-09
-1.7624748e-08
7.4949365e-09
1.766234e-08
-6.7988124e-09
-1.714007e-08
6.8395122e-09
1.7175607e-08
-3.8092759e-09
-1.1155235e-08
3.834138e-09
1.1193177e-08
-2.042437e-09
-2.4761009e-09
2.3133223e-09
2.7895141e-09
3.5546288e-09
2.3699404e-09
-3.375599e-09
-2.1788222e-09
7.4240588e-09
6.435482e-09
-7.2100265e-09
-6.2949299e-09
1.1703582e-08
1.1227958e-08
-1.1485073e-08
-1.1066803e-08
1.1223855e-08
1.155744e-08
-1.102583e-08
-1.1409954e-08
5.4865473e-09
6.4425962e-09
-5.3400216e-09
-6.3235095e-09
-9.2786912e-10
1.1542882e-10
1.0163793e-09
-3.6273766e-11
-5.8851758e-09
-5.0532457e-09
5.9181384e-09
5.0888567e-09
-8.904202e-09
-8.3494668e-09
8.889895e-09
8.3443819e-09
-1.0076699e-08
-9.8283382e-09
1.0026578e-08
9.7899078e-09
-9.7862762e-09
-9.8082571e-09
9.7120669e-09
9.7453837e-09
-8.5926533e-09
-8.8159869e-09
8.5041791e-09
8.7369671e-09
-7.0253791e-09
-7.3333379e-09
6.9300198e-09
7.2448692e-09
-5.4366561e-09
-5.7997988e-09
5.3394466e-09
5.7067567e-09
-4.0798327e-09
-4.4586558e-09
3.9838232e-09
4.3642561e-09
-3.0650746e-09
-3.4476024e-09
2.971813e-09
3.3537089e-09
-2.4096351e-09
-2.7988992e-09
2.3196663e-09
2.7064174e-09
-2.0792057e-09
-2.4937303e-09
1.9924783e-09
2.4029882e-09
-2.0086134e-09
-2.4743413e-09
1.9248053e-09
2.3853755e-09
-2.1324569e-09
-2.6707152e-09
2.0511823e-09
2.5834739e-09
-2.3840927e-09
-3.0510147e-09
2.3050327e-09
2.965482e-09
-2.6815803e-09
-3.5124169e-09
2.6045725e-09
3.4286775e-09
-3.0301206e-09
-4.0391856e-09
2.9551827e-09
3.9574492e-09
-3.3265542e-09
-4.5737832e-09
3.2538685e-09
4.4943741e-09
-3.5586296e-09
-5.1051172e-09
3.4885135e-09
5.0284617e-09
-3.6935879e-09
-5.5791777e-09
3.6264563e-09
5.5057902e-09
-3.722181e-09
-5.9872773e-09
3.6585079e-09
5.9177086e-09
-3.5918825e-09
-6.2989953e-09
3.5321667e-09
6.2337933e-09
-3.273426e-09
-6.5061936e-09
3.2181585e-09
6.4458915e-09
-2.8053211e-09
-6.5340568e-09
2.7549586e-09
6.4791518e-09
-2.1388063e-09
-6.5073224e-09
2.0937498e-09
6.4582544e-09
-1.2048469e-09
-5.9958414e-09
1.1654249e-09
5.9529803e-09
1.8782985e-11
-5.6347406e-09
-5.2327392e-11
5.5983755e-09
1.3072325e-09
-4.7502985e-09
-1.334749e-09
4.7206265e-09
2.654064e-09
-3.5573342e-09
-2.6754984e-09
3.5344562e-09
4.2708175e-09
-2.4940633e-09
-4.2862164e-09
2.477979e-09
5.9210043e-09
-6.6942611e-10
-5.9305122e-09
6.6002968e-10
7.5858091e-09
1.2512311e-09
-7.5896669e-09
-1.2541496e-09
9.4643693e-09
3.2643666e-09
-9.4629068e-09
-3.2611203e-09
1.1086773e-08
5.8053692e-09
-1.1080401e-08
-5.7963697e-09
1.2424683e-08
8.4161337e-09
-1.2413882e-08
-8.4018847e-09
1.3670915e-08
1.1297587e-08
-1.3656217e-08
-1.1278668e-08
1.4353676e-08
1.4199456e-08
-1.4335641e-08
-1.4176505e-08
1.4448338e-08
1.708565e-08
-1.4427536e-08
-1.7059338e-08
1.3048366e-08
1.8802879e-08
-1.3025334e-08
-1.8773874e-08
1.2805948e-08
2.1741482e-08
-1.2781137e-08
-2.1710407e-08
1.238912e-08
2.2294603e-08
-1.2362862e-08
-2.2261987e-08
9.5901187e-09
2.4840875e-08
-9.5625797e-09
-2.4807106e-08
8.8710963e-09
2.4882276e-08
-8.8422266e-09
-2.4847563e-08
5.8298243e-09
2.2363141e-08
-5.7993319e-09
-2.2327479e-08
2.731681e-09
2.1675682e-08
-2.6990346e-09
-2.1638844e-08
-3.701315e-10
1.8352401e-08
4.0564844e-10
-1.8313997e-08
-3.4199376e-09
1.2390658e-08
3.4590926e-09
-1.2350242e-08
-4.1456662e-09
8.2660321e-09
4.1890118e-09
-8.2232814e-09
-6.9413073e-09
-5.8754008e-10
6.9887739e-09
6.325545e-10
-7.3387683e-09
-5.1374162e-09
7.3894038e-09
5.1839497e-09
-7.5294952e-09
-1.17649e-08
7.5820567e-09
1.1811577e-08
-9.6479517e-09
-1.7648993e-08
9.6982587e-09
1.7695033e-08
-6.788547e-09
-1.7157632e-08
6.8273722e-09
1.7193819e-08
-3.800669e-09
-1.1165181e-08
3.83366e-09
1.1188061e-08
)
;

boundaryField
{
    movingWall
    {
        type            calculated;
        value           nonuniform List<scalar> 
16
(
-3.5403671e-09
-3.532093e-09
-3.5403672e-09
-3.532093e-09
-1.0532772e-08
-1.0534096e-08
-1.0532772e-08
-1.0534096e-08
3.566481e-09
3.567783e-09
3.5664811e-09
3.567783e-09
1.0570466e-08
1.0553216e-08
1.0570466e-08
1.0553216e-08
)
;
    }
    CPLReceiveMD
    {
        type            calculated;
        value           nonuniform List<scalar> 
16
(
2.0852043e-09
-2.9294636e-09
-3.4854924e-09
-2.9304993e-09
-3.093882e-09
-3.3059372e-09
-3.4289658e-09
-3.3127279e-09
4.0164004e-09
3.3325028e-09
3.5469269e-09
3.3299599e-09
4.0960851e-09
3.6840199e-09
3.7807458e-09
3.6728701e-09
)
;
    }
    streamwiseIn
    {
        type            cyclic;
    }
    streamwiseOut
    {
        type            cyclic;
    }
    front
    {
        type            cyclic;
    }
    back
    {
        type            cyclic;
    }
}


// ************************************************************************* //
