/*--------------------------------*- C++ -*----------------------------------*\
| =========                 |                                                 |
| \\      /  F ield         | OpenFOAM: The Open Source CFD Toolbox           |
|  \\    /   O peration     | Version:  3.0.x                                 |
|   \\  /    A nd           | Web:      www.OpenFOAM.org                      |
|    \\/     M anipulation  |                                                 |
\*---------------------------------------------------------------------------*/
FoamFile
{
    version     2.0;
    format      ascii;
    class       volScalarField;
    location    "125";
    object      sigmayz;
}
// * * * * * * * * * * * * * * * * * * * * * * * * * * * * * * * * * * * * * //

dimensions      [0 2 -2 0 0 0 0];

internalField   nonuniform List<scalar> 
960
(
-4.0054361e-11
-1.7011998e-11
-6.5663034e-11
-1.565241e-11
-1.417507e-11
3.1566536e-12
-1.1665836e-11
1.8887162e-12
-7.0131341e-12
4.597726e-13
3.0324348e-12
-1.2470788e-12
-1.4089689e-12
-1.4434135e-12
1.0703284e-11
-2.9235873e-12
4.2281098e-12
-8.0266952e-13
1.5253384e-11
-1.7025559e-12
8.8205373e-12
3.5827339e-13
1.6978539e-11
9.391714e-14
1.173921e-11
1.2847444e-12
1.675204e-11
1.3808927e-12
1.2866393e-11
1.8109227e-12
1.5483333e-11
1.9928764e-12
1.276258e-11
1.9763953e-12
1.3721971e-11
2.0958969e-12
1.1775834e-11
1.8832165e-12
1.1763477e-11
1.8915337e-12
1.0266269e-11
1.6524073e-12
9.8113643e-12
1.5439689e-12
8.6082213e-12
1.3531351e-12
7.9956245e-12
1.1646801e-12
7.0035011e-12
1.0468375e-12
6.3841869e-12
8.158516e-13
5.5579304e-12
7.7117667e-13
5.0045709e-12
5.2613238e-13
4.3194737e-12
5.4147237e-13
3.8572117e-12
3.0347714e-13
3.2939644e-12
3.6362368e-13
2.9264555e-12
1.4381858e-13
2.4680383e-12
2.3128268e-13
2.1878317e-12
3.7608711e-14
1.8197429e-12
1.3784361e-13
1.6118973e-12
-2.6878785e-14
1.3211571e-12
7.5218979e-14
1.1706962e-12
-6.0829058e-14
9.4434802e-13
3.5765828e-14
8.3854279e-13
-7.3506984e-14
6.6530414e-13
1.2507136e-14
5.916188e-13
-7.3608667e-14
4.6122332e-13
-5.7289356e-17
4.107933e-13
-6.6277659e-14
3.140994e-13
-5.6235694e-15
2.8074897e-13
-5.5582665e-14
2.1010304e-13
-6.9190397e-15
1.8846921e-13
-4.4404432e-14
1.3742575e-13
-6.0306883e-15
1.2413213e-13
-3.3624811e-14
8.7628048e-14
-4.5446141e-15
7.994731e-14
-2.4268131e-14
5.4096419e-14
-3.0186374e-15
4.9885476e-14
-1.6787405e-14
3.1904324e-14
-1.238645e-15
3.0170778e-14
-1.0994901e-14
1.7629006e-14
-2.7484681e-16
1.7256443e-14
-6.626902e-15
8.6786147e-15
6.8456989e-16
9.0338903e-15
-3.3899363e-15
3.3295726e-15
1.3191532e-15
4.0521501e-15
-1.3214982e-15
2.9772519e-16
1.650502e-15
1.0998572e-15
1.9816817e-16
-1.3373677e-15
1.7112028e-15
-3.6242585e-16
7.7326952e-16
-2.0250402e-15
1.6992977e-15
-1.2501535e-15
1.3187095e-15
-2.1176767e-15
1.6407862e-15
-1.5613737e-15
1.3995484e-15
-2.0674662e-15
1.391013e-15
-1.4022564e-15
1.562876e-15
-1.7818768e-15
1.2976082e-15
-1.3392129e-15
1.5119481e-15
-1.4706858e-15
1.2027586e-15
-1.0801477e-15
1.2703781e-15
-1.3252875e-15
7.7930796e-16
-9.8084299e-16
1.0192213e-15
-1.0268277e-15
6.973085e-16
-7.1982402e-16
7.6824145e-16
-7.4680498e-16
6.2583118e-16
-4.7001596e-16
6.900246e-16
-6.5004122e-16
3.9728953e-16
-4.0180793e-16
4.5477682e-16
-4.7074447e-16
3.4539614e-16
-3.6431887e-16
5.6257001e-16
-3.4302458e-16
1.3837904e-16
-2.8756599e-16
3.4624774e-16
-2.6281514e-16
2.7259712e-16
-2.0453943e-16
3.0632749e-16
-1.9571105e-16
2.4750499e-16
-1.4470743e-16
1.0832172e-16
-7.4577804e-17
6.1731042e-17
-5.3881574e-17
8.1682525e-17
-2.2775393e-16
9.7886794e-17
-3.2755985e-17
1.094985e-16
-4.881859e-17
7.1995785e-17
-1.8546052e-17
8.2299435e-17
-3.4481173e-17
6.2952538e-17
-1.3003046e-17
4.4540878e-17
-2.5286062e-17
1.8435102e-16
-6.5331505e-18
2.1051289e-17
-2.1058403e-17
8.15639e-18
3.9110534e-18
1.3857535e-17
-1.8346815e-17
4.3375138e-18
7.527409e-18
8.0342442e-18
-1.5152331e-17
6.7861698e-18
2.7983928e-18
4.7199888e-18
-8.4334615e-18
7.7947323e-18
-8.763421e-19
2.5252911e-18
-5.9139223e-18
5.7152908e-18
2.4070717e-19
5.0889176e-18
-2.89412e-17
7.0014769e-18
2.2225906e-17
5.6788324e-18
-4.4733871e-17
4.4636586e-18
2.1952372e-17
1.9038428e-18
1.8002856e-18
-2.279304e-18
2.5861537e-18
1.9781895e-18
5.0965764e-17
-3.2030987e-18
-4.2794802e-17
6.7611688e-18
-1.1094048e-09
-2.8407938e-10
-1.8525645e-10
-2.5911717e-10
5.5796443e-10
-1.4096821e-10
-5.6901658e-11
-1.3887765e-10
1.0129263e-09
6.0914744e-11
4.0249802e-11
5.6912136e-11
6.2761262e-10
1.0173428e-10
5.4839179e-11
9.0289687e-11
4.3569131e-10
1.1017837e-10
5.4622542e-11
9.6183136e-11
2.9041855e-10
1.0445009e-10
4.9757718e-11
9.2472725e-11
1.8698831e-10
9.0908057e-11
4.1668221e-11
8.2798897e-11
1.1749014e-10
7.5291935e-11
3.3338843e-11
7.0450111e-11
7.2171081e-11
6.0499678e-11
2.6066684e-11
5.7955923e-11
4.353824e-11
4.7784685e-11
2.0151602e-11
4.6678044e-11
2.6275925e-11
3.7407942e-11
1.5529094e-11
3.7106627e-11
1.6106893e-11
2.9145494e-11
1.1983066e-11
2.9241834e-11
1.0153465e-11
2.2622482e-11
9.2702e-12
2.2886428e-11
6.6264047e-12
1.7487065e-11
7.1789729e-12
1.7797254e-11
4.4786731e-12
1.345194e-11
5.5549357e-12
1.3749212e-11
3.1253589e-12
1.0292521e-11
4.286617e-12
1.05497e-11
2.2358933e-12
7.830596e-12
3.2947834e-12
8.0375448e-12
1.6294948e-12
5.9215378e-12
2.5219509e-12
6.0818985e-12
1.2026476e-12
4.4504599e-12
1.9221012e-12
4.5714733e-12
8.9508689e-13
3.325251e-12
1.4595154e-12
3.4139176e-12
6.7066309e-13
2.4700591e-12
1.1019887e-12
2.535634e-12
5.0403501e-13
1.8248867e-12
8.275797e-13
1.8721205e-12
3.7905073e-13
1.3414805e-12
6.1848345e-13
1.3744727e-12
2.8503531e-13
9.8302297e-13
4.6018835e-13
1.0042042e-12
2.1418836e-13
7.172863e-13
3.4178895e-13
7.300487e-13
1.6066427e-13
5.1993722e-13
2.5307444e-13
5.2826373e-13
1.2029228e-13
3.7479922e-13
1.8641739e-13
3.803257e-13
8.9712258e-14
2.6886871e-13
1.3687273e-13
2.7248664e-13
6.6736879e-14
1.9232782e-13
1.0028675e-13
1.9465247e-13
4.9581257e-14
1.3690225e-13
7.3152844e-14
1.3832776e-13
3.6626927e-14
9.7231293e-14
5.3150265e-14
9.8150017e-14
2.6893033e-14
6.8623671e-14
3.8569125e-14
6.9325182e-14
1.9847871e-14
4.8537994e-14
2.7918433e-14
4.8614058e-14
1.4374074e-14
3.4195402e-14
2.0033744e-14
3.4031023e-14
1.0583458e-14
2.3942814e-14
1.4372329e-14
2.373745e-14
7.6402184e-15
1.6684722e-14
1.0321234e-14
1.6623961e-14
5.5806e-15
1.1656126e-14
7.3393475e-15
1.1587512e-14
3.9731996e-15
8.0466497e-15
5.1051715e-15
7.9816573e-15
2.7425984e-15
5.4693648e-15
3.673496e-15
5.4116427e-15
2.0002149e-15
3.7675362e-15
2.6267212e-15
3.7173624e-15
1.3715306e-15
2.6624527e-15
1.7371065e-15
2.4549104e-15
9.9318956e-16
1.7407703e-15
1.1277769e-15
1.711081e-15
6.9225975e-16
1.2824397e-15
8.6494611e-16
1.2618853e-15
4.6810126e-16
9.1639224e-16
5.761033e-16
7.3444846e-16
3.1079875e-16
6.1228059e-16
3.7785896e-16
6.016173e-16
2.2615672e-16
3.4969338e-16
2.4292238e-16
3.4708315e-16
7.2821595e-17
2.8600917e-16
2.4765118e-16
2.8607388e-16
4.6527523e-17
1.6212267e-16
5.1523108e-17
1.439348e-16
2.8191946e-17
1.0215727e-16
3.1983013e-17
9.9492814e-17
1.6456123e-17
6.5718907e-17
1.8560369e-16
6.5548094e-17
8.9504314e-18
1.8113155e-17
1.1357113e-17
2.2377351e-17
3.7829418e-18
1.0361551e-17
8.8933577e-18
1.8111519e-16
-7.5776324e-19
5.9751356e-18
8.7159099e-18
9.6604593e-18
-3.4070894e-18
5.4186757e-18
5.3805722e-18
4.0759081e-18
-7.6166895e-18
4.678328e-18
6.2297258e-18
-1.6984361e-18
-1.5266003e-17
-1.0022265e-18
1.2907158e-17
-3.2015358e-18
-3.4123076e-17
-3.86177e-18
2.6524229e-17
-4.8053158e-18
-1.3696287e-17
2.9223636e-19
1.3159437e-17
-1.4910239e-17
-4.1042545e-18
1.0804537e-18
-5.7848347e-19
-2.5966143e-17
4.4760546e-17
4.2249604e-17
-2.2399563e-18
9.4872999e-18
4.0054361e-11
1.7011998e-11
6.5663034e-11
1.565241e-11
1.417507e-11
-3.1566536e-12
1.1665836e-11
-1.8887162e-12
7.0131341e-12
-4.597726e-13
-3.0324348e-12
1.2470788e-12
1.4089689e-12
1.4434135e-12
-1.0703284e-11
2.9235873e-12
-4.2281098e-12
8.0266952e-13
-1.5253384e-11
1.7025559e-12
-8.8205373e-12
-3.5827339e-13
-1.6978539e-11
-9.391714e-14
-1.173921e-11
-1.2847444e-12
-1.675204e-11
-1.3808927e-12
-1.2866393e-11
-1.8109227e-12
-1.5483333e-11
-1.9928764e-12
-1.276258e-11
-1.9763953e-12
-1.3721971e-11
-2.0958969e-12
-1.1775834e-11
-1.8832165e-12
-1.1763477e-11
-1.8915337e-12
-1.0266269e-11
-1.6524073e-12
-9.8113643e-12
-1.5439689e-12
-8.6082213e-12
-1.3531351e-12
-7.9956245e-12
-1.1646801e-12
-7.0035011e-12
-1.0468375e-12
-6.3841869e-12
-8.158516e-13
-5.5579304e-12
-7.7117667e-13
-5.0045709e-12
-5.2613238e-13
-4.3194737e-12
-5.4147237e-13
-3.8572117e-12
-3.0347714e-13
-3.2939644e-12
-3.6362368e-13
-2.9264555e-12
-1.4381858e-13
-2.4680383e-12
-2.3128268e-13
-2.1878317e-12
-3.7608711e-14
-1.8197429e-12
-1.3784361e-13
-1.6118973e-12
2.6878785e-14
-1.3211571e-12
-7.5218979e-14
-1.1706962e-12
6.0829058e-14
-9.4434802e-13
-3.5765828e-14
-8.3854279e-13
7.3506984e-14
-6.6530414e-13
-1.2507136e-14
-5.916188e-13
7.3608667e-14
-4.6122332e-13
5.7289358e-17
-4.107933e-13
6.6277659e-14
-3.140994e-13
5.6235694e-15
-2.8074897e-13
5.5582665e-14
-2.1010304e-13
6.9190397e-15
-1.8846921e-13
4.4404432e-14
-1.3742575e-13
6.0306883e-15
-1.2413213e-13
3.3624811e-14
-8.7628048e-14
4.5446141e-15
-7.994731e-14
2.4268131e-14
-5.4096419e-14
3.0186374e-15
-4.9885476e-14
1.6787405e-14
-3.1904323e-14
1.238645e-15
-3.0170778e-14
1.0994901e-14
-1.7629006e-14
2.7484681e-16
-1.7256444e-14
6.626902e-15
-8.6786147e-15
-6.8456989e-16
-9.0338903e-15
3.3899363e-15
-3.3295726e-15
-1.3191532e-15
-4.0521501e-15
1.3214982e-15
-2.9772513e-16
-1.6505019e-15
-1.0998572e-15
-1.9816817e-16
1.3373678e-15
-1.7112027e-15
3.6242585e-16
-7.7326946e-16
2.0250402e-15
-1.6992977e-15
1.2501535e-15
-1.3187094e-15
2.1176767e-15
-1.6407862e-15
1.5613737e-15
-1.3995485e-15
2.0674662e-15
-1.391013e-15
1.4022565e-15
-1.562876e-15
1.7818768e-15
-1.2976082e-15
1.339213e-15
-1.511948e-15
1.4706858e-15
-1.2027586e-15
1.0801477e-15
-1.2703782e-15
1.3252874e-15
-7.7930796e-16
9.8084299e-16
-1.0192213e-15
1.0268277e-15
-6.973085e-16
7.1982402e-16
-7.6824139e-16
7.4680505e-16
-6.2583118e-16
4.7001595e-16
-6.9002461e-16
6.5004122e-16
-3.9728953e-16
4.0180793e-16
-4.5477682e-16
4.7074448e-16
-3.4539614e-16
3.6431888e-16
-5.6257001e-16
3.4302458e-16
-1.3837904e-16
2.8756599e-16
-3.4624774e-16
2.6281514e-16
-2.7259711e-16
2.0453943e-16
-3.0632749e-16
1.9571106e-16
-2.4750499e-16
1.4470744e-16
-1.0832172e-16
7.4577804e-17
-6.1731041e-17
5.3881578e-17
-8.1682524e-17
2.2775392e-16
-9.7886792e-17
3.2755985e-17
-1.0949849e-16
4.8818588e-17
-7.1995782e-17
1.8546053e-17
-8.2299434e-17
3.4481173e-17
-6.2952538e-17
1.3003047e-17
-4.4540877e-17
2.528606e-17
-1.8435102e-16
6.5331505e-18
-2.1051289e-17
2.1058402e-17
-8.1563907e-18
-3.9110541e-18
-1.3857536e-17
1.8346812e-17
-4.3375145e-18
-7.527409e-18
-8.0342449e-18
1.515233e-17
-6.78617e-18
-2.7983928e-18
-4.7199888e-18
8.4334605e-18
-7.794734e-18
8.7634189e-19
-2.5252898e-18
5.9139217e-18
-5.715291e-18
-2.4070839e-19
-5.0889179e-18
2.89412e-17
-7.0014795e-18
-2.2225908e-17
-5.6788326e-18
4.473387e-17
-4.4636608e-18
-2.1952374e-17
-1.9038442e-18
-1.8002869e-18
2.2793002e-18
-2.5861563e-18
-1.978191e-18
-5.0965765e-17
3.2030941e-18
4.2794801e-17
-6.761168e-18
1.1094048e-09
2.8407938e-10
1.8525645e-10
2.5911717e-10
-5.5796443e-10
1.4096821e-10
5.6901658e-11
1.3887765e-10
-1.0129263e-09
-6.0914744e-11
-4.0249802e-11
-5.6912136e-11
-6.2761262e-10
-1.0173428e-10
-5.4839179e-11
-9.0289687e-11
-4.3569131e-10
-1.1017837e-10
-5.4622542e-11
-9.6183136e-11
-2.9041855e-10
-1.0445009e-10
-4.9757718e-11
-9.2472725e-11
-1.8698831e-10
-9.0908057e-11
-4.1668221e-11
-8.2798897e-11
-1.1749014e-10
-7.5291935e-11
-3.3338843e-11
-7.0450111e-11
-7.2171081e-11
-6.0499678e-11
-2.6066684e-11
-5.7955923e-11
-4.353824e-11
-4.7784685e-11
-2.0151602e-11
-4.6678044e-11
-2.6275925e-11
-3.7407942e-11
-1.5529094e-11
-3.7106627e-11
-1.6106893e-11
-2.9145494e-11
-1.1983066e-11
-2.9241834e-11
-1.0153465e-11
-2.2622482e-11
-9.2702e-12
-2.2886428e-11
-6.6264047e-12
-1.7487065e-11
-7.1789729e-12
-1.7797254e-11
-4.4786731e-12
-1.345194e-11
-5.5549357e-12
-1.3749212e-11
-3.1253589e-12
-1.0292521e-11
-4.286617e-12
-1.05497e-11
-2.2358933e-12
-7.830596e-12
-3.2947834e-12
-8.0375448e-12
-1.6294948e-12
-5.9215378e-12
-2.5219509e-12
-6.0818985e-12
-1.2026476e-12
-4.4504599e-12
-1.9221012e-12
-4.5714733e-12
-8.9508689e-13
-3.325251e-12
-1.4595154e-12
-3.4139176e-12
-6.7066309e-13
-2.4700591e-12
-1.1019887e-12
-2.535634e-12
-5.0403501e-13
-1.8248867e-12
-8.275797e-13
-1.8721205e-12
-3.7905073e-13
-1.3414805e-12
-6.1848345e-13
-1.3744727e-12
-2.8503531e-13
-9.8302297e-13
-4.6018835e-13
-1.0042042e-12
-2.1418836e-13
-7.172863e-13
-3.4178895e-13
-7.300487e-13
-1.6066427e-13
-5.1993722e-13
-2.5307444e-13
-5.2826373e-13
-1.2029228e-13
-3.7479922e-13
-1.8641739e-13
-3.803257e-13
-8.9712258e-14
-2.6886871e-13
-1.3687273e-13
-2.7248664e-13
-6.6736879e-14
-1.9232782e-13
-1.0028675e-13
-1.9465247e-13
-4.9581258e-14
-1.3690225e-13
-7.3152844e-14
-1.3832776e-13
-3.6626927e-14
-9.7231293e-14
-5.3150265e-14
-9.8150017e-14
-2.6893032e-14
-6.8623671e-14
-3.8569125e-14
-6.9325182e-14
-1.9847872e-14
-4.8537994e-14
-2.7918433e-14
-4.8614058e-14
-1.4374074e-14
-3.4195402e-14
-2.0033744e-14
-3.4031023e-14
-1.0583457e-14
-2.3942814e-14
-1.4372329e-14
-2.373745e-14
-7.6402184e-15
-1.6684722e-14
-1.0321234e-14
-1.6623961e-14
-5.5806e-15
-1.1656126e-14
-7.3393475e-15
-1.1587512e-14
-3.9731996e-15
-8.0466497e-15
-5.1051715e-15
-7.9816573e-15
-2.7425984e-15
-5.4693647e-15
-3.673496e-15
-5.4116427e-15
-2.0002149e-15
-3.7675362e-15
-2.6267212e-15
-3.7173625e-15
-1.3715305e-15
-2.6624527e-15
-1.7371065e-15
-2.4549104e-15
-9.9318956e-16
-1.7407703e-15
-1.1277769e-15
-1.7110809e-15
-6.9225975e-16
-1.2824397e-15
-8.6494611e-16
-1.2618853e-15
-4.6810126e-16
-9.1639224e-16
-5.761033e-16
-7.3444846e-16
-3.1079875e-16
-6.1228059e-16
-3.7785896e-16
-6.0161729e-16
-2.2615672e-16
-3.4969338e-16
-2.4292238e-16
-3.4708315e-16
-7.2821591e-17
-2.8600916e-16
-2.4765118e-16
-2.8607388e-16
-4.6527521e-17
-1.6212267e-16
-5.1523104e-17
-1.439348e-16
-2.8191946e-17
-1.0215727e-16
-3.1983011e-17
-9.9492812e-17
-1.6456124e-17
-6.5718907e-17
-1.8560368e-16
-6.5548093e-17
-8.9504312e-18
-1.8113155e-17
-1.1357111e-17
-2.2377351e-17
-3.7829414e-18
-1.0361552e-17
-8.8933573e-18
-1.8111518e-16
7.5776383e-19
-5.9751369e-18
-8.7159115e-18
-9.6604582e-18
3.4070872e-18
-5.4186775e-18
-5.3805727e-18
-4.0759094e-18
7.6166886e-18
-4.6783293e-18
-6.229727e-18
1.6984346e-18
1.5266003e-17
1.0022234e-18
-1.2907158e-17
3.2015351e-18
3.4123074e-17
3.8617687e-18
-2.652423e-17
4.8053169e-18
1.3696285e-17
-2.922388e-19
-1.3159439e-17
1.4910239e-17
4.1042538e-18
-1.0804563e-18
5.7848282e-19
2.5966144e-17
-4.4760546e-17
-4.2249606e-17
2.2399563e-18
-9.4872987e-18
)
;

boundaryField
{
    movingWall
    {
        type            calculated;
        value           nonuniform List<scalar> 
16
(
9.2480964e-17
8.9940345e-17
-9.2480966e-17
-8.9940345e-17
-7.1564374e-19
8.5332994e-17
7.1563901e-19
-8.5332996e-17
-5.4635805e-17
1.0496915e-17
5.4635805e-17
-1.0496915e-17
9.6909916e-18
4.8125105e-17
-9.69099e-18
-4.8125104e-17
)
;
    }
    CPLReceiveMD
    {
        type            calculated;
        value           nonuniform List<scalar> 
16
(
-6.446385e-11
-1.9174885e-09
6.446385e-11
1.9174885e-09
-3.9344542e-11
-2.6498583e-10
3.9344542e-11
2.6498583e-10
-1.132341e-10
-2.3948279e-10
1.132341e-10
2.3948279e-10
-3.6730473e-11
-2.1772365e-10
3.6730473e-11
2.1772365e-10
)
;
    }
    streamwiseIn
    {
        type            cyclic;
    }
    streamwiseOut
    {
        type            cyclic;
    }
    front
    {
        type            cyclic;
    }
    back
    {
        type            cyclic;
    }
}


// ************************************************************************* //
