/*--------------------------------*- C++ -*----------------------------------*\
| =========                 |                                                 |
| \\      /  F ield         | OpenFOAM: The Open Source CFD Toolbox           |
|  \\    /   O peration     | Version:  3.0.x                                 |
|   \\  /    A nd           | Web:      www.OpenFOAM.org                      |
|    \\/     M anipulation  |                                                 |
\*---------------------------------------------------------------------------*/
FoamFile
{
    version     2.0;
    format      ascii;
    class       volScalarField;
    location    "125";
    object      sigmazz;
}
// * * * * * * * * * * * * * * * * * * * * * * * * * * * * * * * * * * * * * //

dimensions      [0 2 -2 0 0 0 0];

internalField   nonuniform List<scalar> 
960
(
3.0049801e-09
4.9752416e-10
-3.998451e-11
7.4057306e-11
-3.5342651e-11
3.5992381e-10
-6.0097893e-10
-3.744902e-10
-6.546665e-10
3.5877435e-10
-7.6917652e-10
-4.5872214e-10
-6.8348311e-10
1.6049519e-10
-3.8963581e-10
-2.5352359e-10
-4.3510475e-10
-2.9945657e-11
-1.0260662e-10
-7.0313506e-11
-2.2653459e-10
4.7990988e-11
-1.5222382e-10
-1.6726613e-10
-2.3293249e-10
-3.2622135e-11
-3.3781213e-11
-1.0426099e-10
-2.087421e-10
-8.5350088e-11
1.0446044e-11
-6.782102e-11
-1.8199444e-10
-1.0130189e-10
2.0972937e-11
-6.486891e-11
-1.4595682e-10
-9.2419787e-11
5.6249963e-12
-8.113251e-11
-1.1168626e-10
-1.0168332e-10
-1.5737164e-11
-7.2944737e-11
-9.0604568e-11
-1.0172981e-10
-2.7221675e-11
-6.8259176e-11
-7.7051924e-11
-8.5720946e-11
-3.2484408e-11
-7.5374031e-11
-7.0218906e-11
-8.3529332e-11
-3.1691799e-11
-6.6175897e-11
-6.7634369e-11
-8.3024209e-11
-2.7298069e-11
-5.4396665e-11
-7.1522441e-11
-8.6069607e-11
-1.7322565e-11
-3.940172e-11
-8.1138446e-11
-9.31104e-11
-2.7080375e-12
-2.1546069e-11
-9.294685e-11
-1.0432182e-10
1.2984675e-11
-1.0584864e-12
-1.0805289e-10
-1.1738333e-10
3.0975306e-11
1.9662309e-11
-1.1959336e-10
-1.3979626e-10
4.4631232e-11
4.8260751e-11
-1.4946529e-10
-1.5174053e-10
7.6134544e-11
6.519207e-11
-1.6994342e-10
-1.789167e-10
9.8034423e-11
9.648943e-11
-1.9722261e-10
-2.0541946e-10
1.2676957e-10
1.2658137e-10
-2.2793565e-10
-2.401379e-10
1.5917679e-10
1.646584e-10
-2.6089124e-10
-2.7188834e-10
1.9421742e-10
1.9977294e-10
-2.8550754e-10
-3.1319647e-10
2.2140947e-10
2.4462128e-10
-3.1472353e-10
-3.4422565e-10
2.5374615e-10
2.7949982e-10
-3.5149363e-10
-3.899851e-10
2.9419548e-10
3.2950447e-10
-3.9984046e-10
-4.423293e-10
3.4675643e-10
3.8651809e-10
-4.4279428e-10
-4.9301923e-10
3.9441098e-10
4.4229613e-10
-4.7596953e-10
-5.1145651e-10
4.3270785e-10
4.6620932e-10
-4.3031604e-10
-6.6666274e-10
3.92517e-10
6.272251e-10
-5.3878505e-10
-6.3955014e-10
5.0670062e-10
6.0618925e-10
-5.8237168e-10
-7.5500549e-10
5.5616225e-10
7.2790811e-10
-6.784332e-10
-7.8402226e-10
6.5816384e-10
7.6329004e-10
-7.2634396e-10
-8.3194035e-10
7.1198469e-10
8.1758541e-10
-7.4063511e-10
-1.00629e-09
7.3206341e-10
9.9823067e-10
-7.4007823e-10
-1.0847438e-09
7.3708113e-10
1.0828068e-09
-8.5836519e-10
-1.0708077e-09
8.6064671e-10
1.0747289e-09
-7.8868527e-10
-1.1947814e-09
7.958712e-10
1.2042074e-09
-7.8127198e-10
-1.2489721e-09
7.9292128e-10
1.2634678e-09
-8.6522576e-10
-1.3652441e-09
8.8084526e-10
1.3843036e-09
-9.5758504e-10
-1.4609111e-09
9.766466e-10
1.483971e-09
-9.7207681e-10
-1.4610032e-09
9.9403867e-10
1.4874642e-09
-2.619399e-10
-1.187221e-09
2.8627823e-10
1.2164738e-09
-5.0238841e-10
-1.5777797e-09
5.2863922e-10
1.6092406e-09
-9.1736916e-10
-1.0244731e-09
9.4516427e-10
1.0576231e-09
-3.8614202e-10
-6.9633974e-10
4.1525037e-10
7.3076622e-10
-1.1041063e-09
-1.762597e-09
1.1344766e-09
1.7980302e-09
-8.163229e-10
-9.5012284e-10
8.4811114e-10
9.8646812e-10
-5.862711e-10
-1.6335423e-09
6.1984487e-10
1.6708928e-09
-3.6088017e-10
-1.6229538e-09
3.9678285e-10
1.6615487e-09
-1.1940786e-09
-2.0306009e-09
1.232935e-09
2.0707281e-09
-8.1369928e-10
-1.7097487e-09
8.5602286e-10
1.7515593e-09
-2.8477798e-10
-1.6790058e-09
3.3062551e-10
1.7222417e-09
-6.8657888e-10
-6.7346893e-10
7.3534548e-10
7.1720594e-10
2.28256e-10
-1.748239e-09
-1.773485e-10
1.7912186e-09
-7.8277055e-10
-9.8134649e-10
8.3757593e-10
1.0189386e-09
-1.4145186e-10
-4.9666834e-10
1.8215159e-10
5.3220545e-10
-4.8059558e-10
-1.1691941e-09
5.0545763e-10
1.2071362e-09
3.0494561e-10
5.3262471e-10
4.2935514e-12
-1.8843006e-10
2.1445852e-10
2.4408179e-10
-2.4787162e-11
-4.1131053e-11
6.6821027e-10
3.767248e-10
-4.6147677e-10
-2.3939255e-10
2.4022471e-10
1.0798634e-10
-2.4487314e-11
4.5669776e-11
1.0257661e-10
3.7134593e-11
9.5426153e-11
1.0188923e-10
1.5915906e-10
1.490053e-10
-6.7580455e-12
-3.6203141e-11
3.9447981e-11
8.0830385e-11
6.062406e-11
-5.0133124e-12
-2.1709657e-11
3.932734e-11
6.9825834e-11
-4.5224715e-12
-4.3132226e-11
5.9707002e-12
4.5495232e-11
-1.0116318e-11
-4.9701397e-11
-7.8359823e-12
1.6392623e-11
-2.8701703e-11
-5.885253e-11
-2.085577e-11
4.3249569e-13
-3.9786002e-11
-6.4192081e-11
-2.7176681e-11
-1.0281867e-11
-4.9665419e-11
-5.8988161e-11
-4.2543583e-11
-2.4440984e-11
-4.4032185e-11
-6.2376097e-11
-5.1460017e-11
-2.4979739e-11
-4.0065991e-11
-6.7947324e-11
-6.0831934e-11
-2.0129191e-11
-3.2433381e-11
-7.5955806e-11
-7.1849299e-11
-1.105493e-11
-2.1247249e-11
-8.69908e-11
-8.5690804e-11
1.8531928e-12
-6.2650922e-12
-1.0002668e-10
-1.0018369e-10
1.6968217e-11
9.7624724e-12
-1.1646939e-10
-1.1749133e-10
3.5402512e-11
2.8699066e-11
-1.3417957e-10
-1.4083145e-10
5.4921179e-11
5.3666104e-11
-1.5310319e-10
-1.5501417e-10
7.550496e-11
6.9498722e-11
-1.84517e-10
-1.8371239e-10
1.0855414e-10
9.9956425e-11
-2.0035369e-10
-2.1119407e-10
1.2615029e-10
1.2942613e-10
-2.3061308e-10
-2.4649776e-10
1.5843545e-10
1.6705271e-10
-2.6305347e-10
-2.7853301e-10
1.9328322e-10
2.0184338e-10
-2.9821232e-10
-3.1986556e-10
2.3131204e-10
2.4645028e-10
-3.2684767e-10
-3.6181083e-10
2.6332592e-10
2.9222036e-10
-3.6301216e-10
-4.0723334e-10
3.0339264e-10
3.4201578e-10
-4.1072996e-10
-4.479962e-10
3.5552241e-10
3.876837e-10
-4.4194003e-10
-5.0914628e-10
3.9161296e-10
4.5423427e-10
-4.7445652e-10
-5.1569787e-10
4.2941944e-10
4.6662613e-10
-5.3910616e-10
-6.6995224e-10
4.9969368e-10
6.2709028e-10
-6.4695138e-10
-6.4171916e-10
6.1341081e-10
6.0535475e-10
-6.8997601e-10
-7.5588125e-10
6.6246005e-10
7.2621023e-10
-6.7461732e-10
-8.9438878e-10
6.5318115e-10
8.7151239e-10
-7.2220423e-10
-8.2972213e-10
7.0680296e-10
8.1363907e-10
-7.3635785e-10
-1.0022937e-09
7.2684745e-10
9.9289873e-10
-7.3589259e-10
-1.0788439e-09
7.32033e-10
1.075928e-09
-8.5454049e-10
-1.0629166e-09
8.5600138e-10
1.0661654e-09
-8.9647683e-10
-1.1848591e-09
9.028473e-10
1.1938597e-09
-8.9003855e-10
-1.2370386e-09
9.0083856e-10
1.2512889e-09
-9.7527918e-10
-1.3513974e-09
9.8997653e-10
1.3703172e-09
-9.5825425e-10
-1.4453408e-09
9.7628801e-10
1.4682921e-09
-8.6359146e-10
-1.5549594e-09
8.8439268e-10
1.5812721e-09
-2.6635547e-10
-1.1692028e-09
2.8938691e-10
1.1982084e-09
-5.0877401e-10
-1.5592795e-09
5.3358357e-10
1.590356e-09
-9.2560089e-10
-1.0061584e-09
9.5185858e-10
1.0387755e-09
-3.9592221e-10
-1.7885679e-09
4.234612e-10
1.8223366e-09
-1.114945e-09
-1.7471668e-09
1.1438143e-09
1.7818792e-09
-8.2753635e-10
-9.3762139e-10
8.5802867e-10
9.7328358e-10
-5.969993e-10
-1.62508e-09
6.2964571e-10
1.6619182e-09
-3.701315e-10
-1.61968e-09
4.0564844e-10
1.6580846e-09
-9.1257329e-11
-9.2406359e-10
1.3041224e-10
9.6447968e-10
-8.1698591e-10
-1.7200088e-09
8.6033144e-10
1.7627595e-09
-2.8394663e-10
-5.8754009e-10
3.3141324e-10
6.325545e-10
-6.8140768e-10
-1.8087359e-09
7.3204313e-10
1.8552694e-09
-8.7213449e-10
-1.7788594e-09
9.2469599e-10
1.8255361e-09
3.3808909e-10
-1.0055913e-09
-2.8778221e-10
1.0516314e-09
-1.3118647e-10
-5.1423036e-10
1.7001162e-10
5.5041783e-10
-4.7198875e-10
-1.17914e-09
5.0497969e-10
1.20202e-09
4.6925672e-10
4.5279175e-10
2.6275421e-10
1.5247763e-11
1.2067965e-09
6.6040316e-10
-1.7843313e-10
-9.1002652e-11
1.2113973e-09
6.460522e-10
-4.5673197e-10
-1.5150521e-10
6.6110988e-10
4.3366191e-10
-1.3010654e-10
1.8422597e-11
2.7664884e-10
1.9338922e-10
8.719211e-11
1.6454056e-10
2.5074347e-10
2.4933636e-10
-1.3661437e-11
1.898415e-11
7.4023056e-11
1.3408856e-10
6.4652602e-11
4.9064357e-11
-3.0026054e-11
4.8880606e-11
9.19894e-11
5.7395396e-11
-6.036498e-11
5.5504052e-12
6.6703584e-11
3.6744339e-11
-7.2448374e-11
-7.8654901e-12
4.0971445e-11
8.4115351e-13
-6.7097612e-11
-3.5034933e-11
1.1716438e-11
-7.2367743e-12
-6.2924312e-11
-3.827751e-11
-5.8131915e-12
-2.7055473e-11
-5.9271516e-11
-4.4757031e-11
-1.5750296e-11
-3.4069495e-11
-5.7246345e-11
-5.1650024e-11
-1.9720529e-11
-3.3822952e-11
-5.9442158e-11
-5.8373308e-11
-1.709691e-11
-2.9268163e-11
-6.5707169e-11
-6.71395e-11
-9.3991685e-12
-2.0043966e-11
-7.5812703e-11
-7.8671686e-11
2.3052953e-12
-6.752245e-12
-8.9845107e-11
-9.2269788e-11
1.7688728e-11
9.052155e-12
-1.0574806e-10
-1.0914325e-10
3.4569437e-11
2.8112624e-11
-1.1787118e-10
-1.3362925e-10
4.7364829e-11
5.4581662e-11
-1.4817374e-10
-1.4715175e-10
7.8205065e-11
6.9890692e-11
-1.6897226e-10
-1.755218e-10
9.9594138e-11
9.99638e-11
-1.9649178e-10
-2.0292343e-10
1.2793773e-10
1.2913505e-10
-2.2738664e-10
-2.3831217e-10
1.6004679e-10
1.6652489e-10
-2.6047997e-10
-2.7055626e-10
1.9486172e-10
2.0113047e-10
-2.8520019e-10
-3.1222864e-10
2.2188592e-10
2.4560427e-10
-3.1449427e-10
-3.4352668e-10
2.5409754e-10
2.8020874e-10
-3.5132309e-10
-3.8948352e-10
2.9445268e-10
3.3001231e-10
-3.997145e-10
-4.4197098e-10
3.4694427e-10
3.8688043e-10
-4.4270126e-10
-4.9276373e-10
3.9454811e-10
4.4255368e-10
-4.7590066e-10
-5.1127478e-10
4.3280718e-10
4.6639141e-10
-4.3026591e-10
-6.6653447e-10
3.9258855e-10
6.2735442e-10
-5.3874829e-10
-6.3946035e-10
5.0675249e-10
6.0628045e-10
-5.8234493e-10
-7.5494194e-10
5.5619966e-10
7.2797173e-10
-6.7841407e-10
-7.8397741e-10
6.5819031e-10
7.6333409e-10
-7.2633e-10
-8.3190916e-10
7.1200359e-10
8.1761584e-10
-7.4062506e-10
-1.0062683e-09
7.3207722e-10
9.9825212e-10
-7.4007061e-10
-1.0847283e-09
7.3709068e-10
1.082822e-09
-8.5835999e-10
-1.0707971e-09
8.6065305e-10
1.0747393e-09
-7.8868174e-10
-1.1947746e-09
7.9587608e-10
1.2042145e-09
-7.8126945e-10
-1.2489672e-09
7.92925e-10
1.2634725e-09
-8.6522411e-10
-1.3652409e-09
8.8084733e-10
1.3843064e-09
-9.575838e-10
-1.4609092e-09
9.7664784e-10
1.4839733e-09
-9.7207592e-10
-1.4610017e-09
9.9403976e-10
1.4874657e-09
-2.6193937e-10
-1.1872196e-09
2.8627895e-10
1.2164747e-09
-5.0238787e-10
-1.577779e-09
5.2863944e-10
1.6092412e-09
-9.1736878e-10
-1.0244726e-09
9.4516469e-10
1.0576235e-09
-3.8614198e-10
-6.963393e-10
4.1525088e-10
7.307666e-10
-1.1041063e-09
-1.7625968e-09
1.1344762e-09
1.7980303e-09
-8.163229e-10
-9.5012263e-10
8.4811116e-10
9.8646827e-10
-5.862711e-10
-1.6335422e-09
6.1984532e-10
1.6708925e-09
-3.6088018e-10
-1.6229538e-09
3.9678286e-10
1.6615487e-09
-1.1940786e-09
-2.0306009e-09
1.232935e-09
2.0707285e-09
-8.1369927e-10
-1.7097487e-09
8.5602285e-10
1.7515593e-09
-2.8477799e-10
-1.6790057e-09
3.306255e-10
1.7222416e-09
-6.8657884e-10
-6.734689e-10
7.3534542e-10
7.1720593e-10
2.2825603e-10
-1.748239e-09
-1.7734854e-10
1.7912186e-09
-7.8277055e-10
-9.8134646e-10
8.375759e-10
1.0189385e-09
-1.414518e-10
-4.966683e-10
1.8215158e-10
5.3220544e-10
-4.8059557e-10
-1.1691941e-09
5.0545771e-10
1.2071362e-09
2.7167345e-10
5.1011123e-10
-4.4781684e-11
-2.1514766e-10
1.6936758e-10
2.3329441e-10
-4.9766463e-11
-5.3770033e-11
6.4003781e-10
3.7330968e-10
-4.9015425e-10
-2.3961791e-10
1.9150287e-10
1.065098e-10
-3.6794065e-11
4.8174485e-11
7.8415892e-11
3.6503268e-11
5.9792999e-11
1.0412599e-10
1.3483742e-10
1.4780075e-10
-4.1991362e-11
-3.5473935e-11
1.4425162e-11
7.8886778e-11
2.763094e-11
-5.8206169e-12
-4.6489323e-11
3.6851744e-11
4.0394864e-11
-6.3298097e-12
-6.6395137e-11
3.2639532e-12
2.0073009e-11
-1.2337106e-11
-7.0712501e-11
-1.0481974e-11
-5.0521901e-12
-3.0902011e-11
-7.7081357e-11
-2.3237686e-11
-1.726733e-11
-4.1701408e-11
-7.9412061e-11
-2.9196686e-11
-2.4602056e-11
-5.1178384e-11
-7.1337168e-11
-4.4160212e-11
-3.5818631e-11
-4.5130598e-11
-7.2159703e-11
-5.1579846e-11
-3.3868686e-11
-4.1905688e-11
-7.5540827e-11
-6.1724441e-11
-2.696454e-11
-3.2867193e-11
-8.1745447e-11
-7.2468917e-11
-1.6232066e-11
-2.1460935e-11
-9.133078e-11
-8.6103716e-11
-2.0124561e-12
-6.3281595e-12
-1.0322764e-10
-1.0044595e-10
1.4121043e-11
9.7930132e-12
-1.1879515e-10
-1.176487e-10
3.3335244e-11
2.8781766e-11
-1.3584328e-10
-1.4091936e-10
5.3440528e-11
5.3769824e-11
-1.542746e-10
-1.5505938e-10
7.4458217e-11
6.9603365e-11
-1.8533041e-10
-1.8373256e-10
1.0782577e-10
1.0005202e-10
-2.0090838e-10
-2.1120061e-10
1.2565216e-10
1.2950601e-10
-2.309839e-10
-2.4649815e-10
1.5810035e-10
1.6711601e-10
-2.6329654e-10
-2.7853184e-10
1.9306236e-10
2.0189179e-10
-2.9836732e-10
-3.198654e-10
2.3116931e-10
2.464846e-10
-3.2694351e-10
-3.618111e-10
2.6323654e-10
2.9224301e-10
-3.6306884e-10
-4.0723523e-10
3.0333889e-10
3.4202992e-10
-4.1076125e-10
-4.4799966e-10
3.5549108e-10
3.8769191e-10
-4.4195536e-10
-5.0914963e-10
3.915963e-10
4.5423781e-10
-4.7446214e-10
-5.1570174e-10
4.2941183e-10
4.6662674e-10
-5.3910649e-10
-6.6995648e-10
4.9969167e-10
6.2708854e-10
-6.469489e-10
-6.4172325e-10
6.1341149e-10
6.0535188e-10
-6.8997195e-10
-7.5588474e-10
6.6246174e-10
7.2620731e-10
-6.7461314e-10
-8.9439214e-10
6.5318413e-10
8.7150952e-10
-7.2220035e-10
-8.2972497e-10
7.0680587e-10
8.136367e-10
-7.3635422e-10
-1.0022956e-09
7.2684988e-10
9.9289596e-10
-7.3588999e-10
-1.0788463e-09
7.3203501e-10
1.0759252e-09
-8.5453838e-10
-1.0629187e-09
8.5600303e-10
1.066163e-09
-8.9647467e-10
-1.1848601e-09
9.0284909e-10
1.193858e-09
-8.9003715e-10
-1.2370397e-09
9.0083969e-10
1.2512875e-09
-9.752782e-10
-1.3513984e-09
9.89977e-10
1.3703165e-09
-9.5825327e-10
-1.4453416e-09
9.7628842e-10
1.4682915e-09
-8.635908e-10
-1.5549597e-09
8.8439316e-10
1.5812712e-09
-2.66355e-10
-1.1692026e-09
2.8938732e-10
1.1982077e-09
-5.0877344e-10
-1.5592801e-09
5.3358396e-10
1.5903553e-09
-9.2560091e-10
-1.0061589e-09
9.5185884e-10
1.0387754e-09
-3.959221e-10
-1.7885679e-09
4.2346125e-10
1.8223366e-09
-1.1149445e-09
-1.7471669e-09
1.1438143e-09
1.781879e-09
-8.275363e-10
-9.3762108e-10
8.5802869e-10
9.7328342e-10
-5.9699926e-10
-1.6250801e-09
6.2964573e-10
1.6619181e-09
-3.7013148e-10
-1.6196804e-09
4.0564846e-10
1.6580846e-09
-9.1257298e-11
-9.2406363e-10
1.3041226e-10
9.6447968e-10
-8.169859e-10
-1.7200089e-09
8.6033148e-10
1.7627595e-09
-2.8394665e-10
-5.8754009e-10
3.3141326e-10
6.3255449e-10
-6.8140776e-10
-1.8087359e-09
7.3204319e-10
1.8552694e-09
-8.7213459e-10
-1.7788594e-09
9.2469607e-10
1.8255361e-09
3.380891e-10
-1.0055913e-09
-2.8778216e-10
1.0516313e-09
-1.3118642e-10
-5.1423037e-10
1.7001165e-10
5.504178e-10
-4.7198878e-10
-1.17914e-09
5.0497966e-10
1.20202e-09
)
;

boundaryField
{
    movingWall
    {
        type            calculated;
        value           nonuniform List<scalar> 
16
(
-2.1168685e-10
-2.0341269e-10
-2.1168686e-10
-2.0341272e-10
-5.4673078e-10
-5.4805544e-10
-5.4673074e-10
-5.4805544e-10
2.3780073e-10
2.3910268e-10
2.3780083e-10
2.3910271e-10
5.8442505e-10
5.6717506e-10
5.8442505e-10
5.6717507e-10
)
;
    }
    CPLReceiveMD
    {
        type            calculated;
        value           nonuniform List<scalar> 
16
(
4.4644159e-09
-5.8342165e-10
-5.3881541e-10
-6.1638885e-10
-1.716526e-10
-3.0052478e-10
-3.5957061e-10
-3.2651578e-10
9.6058398e-10
1.0304543e-09
1.2768548e-09
9.718559e-10
1.038876e-09
6.9705721e-10
8.4633041e-10
6.6820832e-10
)
;
    }
    streamwiseIn
    {
        type            cyclic;
    }
    streamwiseOut
    {
        type            cyclic;
    }
    front
    {
        type            cyclic;
    }
    back
    {
        type            cyclic;
    }
}


// ************************************************************************* //
