/*--------------------------------*- C++ -*----------------------------------*\
| =========                 |                                                 |
| \\      /  F ield         | OpenFOAM: The Open Source CFD Toolbox           |
|  \\    /   O peration     | Version:  3.0.x                                 |
|   \\  /    A nd           | Web:      www.OpenFOAM.org                      |
|    \\/     M anipulation  |                                                 |
\*---------------------------------------------------------------------------*/
FoamFile
{
    version     2.0;
    format      ascii;
    class       volVectorField;
    location    "125";
    object      Ub;
}
// * * * * * * * * * * * * * * * * * * * * * * * * * * * * * * * * * * * * * //

dimensions      [0 1 -1 0 0 0 0];

internalField   nonuniform List<vector> 
960
(
(-0.010756447 -2.2011252e-09 -2.3982134e-11)
(-0.010756457 6.3656998e-10 -1.4420303e-11)
(-0.010756456 -1.1350546e-09 -4.2100383e-11)
(-0.010756448 -1.1800326e-09 -1.3292855e-11)
(-0.0033611096 -3.2889561e-09 -3.498998e-11)
(-0.0033611096 3.8999074e-10 -9.4490203e-12)
(-0.0033611061 -1.1328447e-09 -5.4277663e-11)
(-0.0033611141 -1.3489675e-09 -7.9659839e-12)
(-0.0041420942 -4.822261e-09 -4.0256126e-11)
(-0.0041420781 -1.4261268e-09 -5.969653e-12)
(-0.0041420767 1.1739236e-09 -5.6101401e-11)
(-0.0041420968 2.1035394e-10 -4.335356e-12)
(-0.0053769719 -7.597171e-09 -4.2256581e-11)
(-0.0053769413 -5.2021947e-09 -5.4923411e-12)
(-0.0053769399 5.1468041e-09 -5.3576481e-11)
(-0.0053769736 3.7560685e-09 -4.2285269e-12)
(-0.0058557653 -1.214583e-08 -4.152878e-11)
(-0.0058557314 -1.0177008e-08 -5.561637e-12)
(-0.0058557309 1.0046108e-08 -4.8321823e-11)
(-0.0058557644 8.5446255e-09 -4.7370301e-12)
(-0.0056766955 -1.5408948e-08 -3.8786224e-11)
(-0.0056766762 -1.407068e-08 -5.3919882e-12)
(-0.0056766761 1.3572071e-08 -4.1845801e-11)
(-0.0056766925 1.232858e-08 -4.7619813e-12)
(-0.0050674142 -1.6047339e-08 -3.4582784e-11)
(-0.0050674134 -1.538821e-08 -4.8896845e-12)
(-0.0050674135 1.4403119e-08 -3.5195806e-11)
(-0.0050674109 1.3606924e-08 -4.256423e-12)
(-0.0042305058 -1.4441285e-08 -2.9727714e-11)
(-0.0042305203 -1.433867e-08 -4.1808912e-12)
(-0.0042305205 1.294596e-08 -2.8939739e-11)
(-0.004230503 1.2579995e-08 -3.4632703e-12)
(-0.0033256224 -1.1329939e-08 -2.4758607e-11)
(-0.0033256468 -1.1616584e-08 -3.3899438e-12)
(-0.0033256471 9.9655474e-09 -2.3331165e-11)
(-0.0033256205 9.9319721e-09 -2.6008936e-12)
(-0.0024630566 -7.4701526e-09 -2.0040049e-11)
(-0.0024630855 -7.9802388e-09 -2.6296895e-12)
(-0.0024630859 6.230549e-09 -1.8479467e-11)
(-0.0024630556 6.4078921e-09 -1.8069882e-12)
(-0.0017057835 -3.5057263e-09 -1.5849637e-11)
(-0.0017058124 -4.0957614e-09 -1.9537613e-12)
(-0.0017058127 2.3881691e-09 -1.4401746e-11)
(-0.0017057832 2.6604513e-09 -1.149095e-12)
(-0.0010787251 1.1605627e-10 -1.2287675e-11)
(-0.001078751 -4.4588909e-10 -1.3906068e-12)
(-0.0010787513 -1.1143422e-09 -1.1054834e-11)
(-0.0010787253 -8.3959e-10 -6.4507319e-13)
(-0.00058068783 3.1600824e-09 -9.3559192e-12)
(-0.00058070944 2.696081e-09 -9.4949842e-13)
(-0.00058070974 -4.0431061e-09 -8.3635976e-12)
(-0.00058068846 -3.8284159e-09 -2.8535384e-13)
(-0.00019527169 5.5672627e-09 -7.0071075e-12)
(-0.00019528872 5.2386753e-09 -6.1877793e-13)
(-0.00019528898 -6.3401422e-09 -6.2396005e-12)
(-0.00019527251 -6.2211297e-09 -4.7403861e-14)
(0.00010097393 7.3971608e-09 -5.1660271e-12)
(0.00010096091 7.2191586e-09 -3.8350962e-13)
(0.00010096068 -8.0656158e-09 -4.5913941e-12)
(0.00010097304 -8.0589143e-09 9.5244888e-14)
(0.00033336217 8.7724853e-09 -3.7507986e-12)
(0.00033335221 8.7484098e-09 -2.2286648e-13)
(0.00033335199 -9.3421669e-09 -3.3329572e-12)
(0.00033336126 -9.45443e-09 1.6827148e-13)
(0.00052630665 9.836488e-09 -2.6825178e-12)
(0.00052629871 9.9666393e-09 -1.1862587e-13)
(0.00052629846 -1.031238e-08 -2.3861599e-12)
(0.00052630574 -1.0548152e-08 1.9364919e-13)
(0.00070224118 1.0725591e-08 -1.8896861e-12)
(0.00070223425 1.1013784e-08 -5.5212335e-14)
(0.00070223397 -1.1111738e-08 -1.6841388e-12)
(0.00070224024 -1.1479331e-08 1.8917803e-13)
(0.00088156608 1.1555018e-08 -1.3100304e-12)
(0.00088155935 1.2013063e-08 -1.9541199e-14)
(0.00088155898 -1.1854477e-08 -1.1711164e-12)
(0.00088156508 -1.2370036e-08 1.6807326e-13)
(0.0010831487 1.2413398e-08 -8.9308269e-13)
(0.0010831415 1.3064057e-08 -1.8056049e-15)
(0.0010831411 -1.2628378e-08 -8.0143909e-13)
(0.0010831476 -1.3318597e-08 1.3966703e-13)
(0.001325079 1.3362627e-08 -5.974169e-13)
(0.001325071 1.4241654e-08 5.126781e-15)
(0.0013250703 -1.3494757e-08 -5.3881501e-13)
(0.0013250777 -1.4398778e-08 1.0995098e-13)
(0.0016255095 1.4440306e-08 -3.9102812e-13)
(0.0016255004 1.5598018e-08 6.0431271e-15)
(0.0016254995 -1.4490933e-08 -3.5525699e-13)
(0.001625508 -1.5661883e-08 8.2398737e-14)
(0.0020034913 1.566303e-08 -2.4937423e-13)
(0.0020034809 1.7165699e-08 4.032107e-15)
(0.0020034798 -1.5633486e-08 -2.2882273e-13)
(0.0020034894 -1.7139913e-08 5.8742286e-14)
(0.0024797636 1.70296e-08 -1.5385282e-13)
(0.002479752 1.8960808e-08 1.0567169e-15)
(0.0024797506 -1.6921445e-08 -1.4337644e-13)
(0.0024797613 -1.8848739e-08 3.9570953e-14)
(0.003077482 1.8523778e-08 -9.0780307e-14)
(0.0030774694 2.0985738e-08 -1.6557485e-15)
(0.0030774675 -1.8338988e-08 -8.6603855e-14)
(0.0030774793 -2.0790783e-08 2.4775062e-14)
(0.0038228782 2.011647e-08 -5.0109122e-14)
(0.0038228647 2.3231242e-08 -3.7901264e-15)
(0.0038228624 -1.985757e-08 -4.9680173e-14)
(0.003822875 -2.2957013e-08 1.3860782e-14)
(0.0047458507 2.1767413e-08 -2.4633636e-14)
(0.0047458366 2.5677791e-08 -5.2605845e-15)
(0.0047458337 -2.1437552e-08 -2.6290328e-14)
(0.0047458469 -2.5328257e-08 6.1755206e-15)
(0.0058804847 2.3426506e-08 -9.279559e-15)
(0.0058804704 2.8296309e-08 -6.0925419e-15)
(0.0058804669 -2.3029491e-08 -1.1950261e-14)
(0.0058804802 -2.7875911e-08 1.0435477e-15)
(0.0072654976 2.5035001e-08 -5.2037768e-16)
(0.0072654838 3.1048485e-08 -6.3799635e-15)
(0.0072654794 -2.4575283e-08 -3.5417697e-15)
(0.0072654925 -3.0562184e-08 -2.1554866e-15)
(0.0089446014 2.6526737e-08 4.0559225e-15)
(0.0089445885 3.3886757e-08 -6.2566809e-15)
(0.0089445832 -2.6009363e-08 1.0731381e-15)
(0.0089445956 -3.3340025e-08 -3.9500217e-15)
(0.01096677 2.7829628e-08 6.0676177e-15)
(0.010966759 3.6754112e-08 -5.8474803e-15)
(0.010966752 -2.7260173e-08 3.3321354e-15)
(0.010966764 -3.615291e-08 -4.7680714e-15)
(0.013386397 2.8867555e-08 6.5771155e-15)
(0.013386388 3.9583902e-08 -5.2673951e-15)
(0.013386381 -2.8252036e-08 4.1843586e-15)
(0.013386391 -3.8934618e-08 -4.9428579e-15)
(0.016263326 2.9562809e-08 6.266395e-15)
(0.01626332 4.2299797e-08 -4.6085105e-15)
(0.016263311 -2.8907586e-08 4.2413872e-15)
(0.016263319 -4.1609175e-08 -4.7200253e-15)
(0.019662726 2.9839144e-08 5.5602526e-15)
(0.019662724 4.4816051e-08 -3.9365231e-15)
(0.019662714 -2.9150814e-08 3.8876233e-15)
(0.019662719 -4.4091104e-08 -4.2760818e-15)
(0.023654807 2.9625454e-08 4.7123516e-15)
(0.02365481 4.7038211e-08 -3.2956631e-15)
(0.023654798 -2.8910747e-08 3.3565683e-15)
(0.0236548 -4.628612e-08 -3.7314113e-15)
(0.028314335 2.8860031e-08 3.8659557e-15)
(0.028314343 4.8864421e-08 -2.7122631e-15)
(0.02831433 -2.8125696e-08 2.7835954e-15)
(0.028314328 -4.8092439e-08 -3.1650762e-15)
(0.033719947 2.749523e-08 3.0940744e-15)
(0.033719962 5.0187475e-08 -2.1975802e-15)
(0.033719948 -2.6747932e-08 2.2414627e-15)
(0.033719942 -4.9402817e-08 -2.6251089e-15)
(0.039953249 2.5502344e-08 2.428082e-15)
(0.039953271 5.0897738e-08 -1.7555968e-15)
(0.039953256 -2.4748556e-08 1.7639388e-15)
(0.039953246 -5.0107476e-08 -2.1358796e-15)
(0.047097682 2.2876359e-08 1.8753655e-15)
(0.047097712 5.0887061e-08 -1.3845181e-15)
(0.047097695 -2.2122264e-08 1.3620515e-15)
(0.047097681 -5.009802e-08 -1.7096695e-15)
(0.05523717 1.9640202e-08 1.4295088e-15)
(0.055237208 5.0053772e-08 -1.0796784e-15)
(0.055237191 -1.8891602e-08 1.0348768e-15)
(0.055237173 -4.9272426e-08 -1.3487122e-15)
(0.064454554 1.5848036e-08 1.0766818e-15)
(0.064454601 4.8308771e-08 -8.3274841e-16)
(0.064454583 -1.5110265e-08 7.761929e-16)
(0.064454562 -4.7541144e-08 -1.050506e-15)
(0.074829832 1.1587107e-08 8.0280052e-16)
(0.074829888 4.5582678e-08 -6.3612671e-16)
(0.07482987 -1.0864966e-08 5.7524806e-16)
(0.074829845 -4.4834257e-08 -8.0797047e-16)
(0.086438235 6.977666e-09 5.9647566e-16)
(0.086438301 4.1833877e-08 -4.8322884e-16)
(0.086438282 -6.2753694e-09 4.1983239e-16)
(0.086438255 -4.1109538e-08 -6.1394961e-16)
(0.099348186 2.1705352e-09 4.4286248e-16)
(0.099348261 3.7057189e-08 -3.6517471e-16)
(0.099348241 -1.4916849e-09 3.0084511e-16)
(0.099348214 -3.636114e-08 -4.6019738e-16)
(0.11361918 -2.6579786e-09 3.2911425e-16)
(0.11361926 3.1292724e-08 -2.7372038e-16)
(0.11361924 3.3103983e-09 2.112379e-16)
(0.11361922 -3.062848e-08 -3.4170826e-16)
(0.12929966 -7.3139606e-09 2.4654281e-16)
(0.12929975 2.4634348e-08 -2.0444179e-16)
(0.12929973 7.9375373e-09 1.4235912e-16)
(0.12929971 -2.4004734e-08 -2.4839604e-16)
(0.14642496 -1.1596409e-08 1.8399458e-16)
(0.14642505 1.7237011e-08 -1.5097741e-16)
(0.14642503 1.2189212e-08 9.2941826e-17)
(0.14642501 -1.6644216e-08 -1.7770715e-16)
(0.16501532 -1.5309958e-08 1.3363062e-16)
(0.16501541 9.3220601e-09 -1.1097984e-16)
(0.16501539 1.5870411e-08 6.0781409e-17)
(0.16501538 -8.7677312e-09 -1.2472717e-16)
(0.18507419 -1.8278996e-08 9.1155089e-17)
(0.18507429 1.1795232e-09 -7.8370236e-17)
(0.18507427 1.8805693e-08 4.3348653e-17)
(0.18507426 -6.6491193e-10 -8.7519643e-17)
(0.20658676 -2.0362028e-08 5.9718362e-17)
(0.20658685 -6.8337696e-09 -5.2373717e-17)
(0.20658683 2.0853509e-08 3.270234e-17)
(0.20658683 7.3076287e-09 -6.3120339e-17)
(0.2295188 -2.1464788e-08 3.8949949e-17)
(0.22951889 -1.4301616e-08 -3.3455758e-17)
(0.22951887 2.1919293e-08 2.3661798e-17)
(0.22951888 1.4733686e-08 -4.5282342e-17)
(0.25381601 -2.1550432e-08 2.1434791e-17)
(0.25381609 -2.0762844e-08 -2.5247031e-17)
(0.25381607 2.1965666e-08 2.2811028e-17)
(0.25381609 2.1151879e-08 -3.1248294e-17)
(0.2794037 -2.0645219e-08 7.0671345e-18)
(0.27940378 -2.5734895e-08 -2.1106831e-17)
(0.27940375 2.1018188e-08 2.9583206e-17)
(0.27940378 2.6079315e-08 -2.4301775e-17)
(0.3061871 -1.8838646e-08 -6.3426276e-18)
(0.30618717 -2.8750503e-08 -1.8679954e-17)
(0.30618713 1.9165636e-08 3.4207666e-17)
(0.30618718 2.9048408e-08 -1.9084298e-17)
(0.33405207 -1.6277443e-08 -1.5873778e-17)
(0.33405212 -2.9411534e-08 -1.0832443e-17)
(0.33405208 1.6554294e-08 3.3820025e-17)
(0.33405214 2.9661001e-08 -1.7155622e-17)
(0.3628664 -1.3152223e-08 -1.9111046e-17)
(0.36286643 -2.7457276e-08 -6.8785836e-18)
(0.36286638 1.3375092e-08 3.2880866e-17)
(0.36286645 2.7656991e-08 -1.526096e-17)
(0.39248157 -9.6785189e-09 -2.4827567e-17)
(0.39248158 -2.2842383e-08 -2.1793858e-18)
(0.39248154 9.8446196e-09 3.4184461e-17)
(0.39248161 2.2992522e-08 -9.4509039e-18)
(0.42273505 -6.1110725e-09 -3.7730143e-17)
(0.42273504 -1.592745e-08 3.7217833e-18)
(0.422735 6.2183291e-09 4.1332883e-17)
(0.42273506 1.6029557e-08 -6.6631015e-18)
(0.45345289 -2.8611409e-09 -4.2158642e-17)
(0.45345287 -8.0145071e-09 4.5786768e-18)
(0.45345284 2.902777e-09 4.2222342e-17)
(0.45345289 8.0792735e-09 -6.5684503e-18)
(0.48445277 -7.5014721e-10 -3.5004477e-17)
(0.48445276 -2.2002918e-09 2.708745e-19)
(0.48445274 7.6497356e-10 2.0049947e-17)
(0.48445277 2.221693e-09 -3.6680856e-18)
(-0.010756448 7.7825722e-10 -9.2619401e-10)
(-0.010756457 7.4122321e-10 -1.105286e-10)
(-0.010756457 -1.0154114e-09 -9.0131987e-11)
(-0.01075645 -9.59374e-10 -9.222402e-11)
(-0.0033611161 3.1726469e-10 -1.5551282e-09)
(-0.0033611119 3.3156379e-10 -3.6049379e-10)
(-0.0033611097 -7.1579432e-10 -1.8829627e-10)
(-0.0033611219 -8.6715558e-10 -3.3934263e-10)
(-0.0041420965 -2.1933585e-09 -1.0743492e-09)
(-0.004142079 -1.4162683e-09 -3.6477995e-10)
(-0.0041420783 1.6154315e-09 -1.7786568e-10)
(-0.0041420993 7.5476393e-10 -3.4373039e-10)
(-0.0053769736 -6.2749634e-09 -7.3088738e-10)
(-0.0053769412 -5.1040844e-09 -3.2035478e-10)
(-0.0053769402 5.5040585e-09 -1.5058429e-10)
(-0.0053769755 4.266994e-09 -3.0258082e-10)
(-0.0058557639 -1.1339382e-08 -4.8061856e-10)
(-0.0058557295 -1.0072245e-08 -2.6612371e-10)
(-0.0058557293 1.0368103e-08 -1.2226415e-10)
(-0.0058557629 9.0715813e-09 -2.5341794e-10)
(-0.0056766919 -1.4882332e-08 -3.0620249e-10)
(-0.0056766728 -1.3901466e-08 -2.1203654e-10)
(-0.005676673 1.3752321e-08 -9.527996e-11)
(-0.0056766888 1.2759029e-08 -2.0443866e-10)
(-0.0050674104 -1.569349e-08 -1.8978744e-10)
(-0.00506741 -1.5167707e-08 -1.6438216e-10)
(-0.0050674103 1.4457376e-08 -7.2294765e-11)
(-0.0050674071 1.3921101e-08 -1.6047988e-10)
(-0.0042305026 -1.4206308e-08 -1.1507268e-10)
(-0.0042305175 -1.4105304e-08 -1.2537922e-10)
(-0.0042305179 1.2919363e-08 -5.4092182e-11)
(-0.0042304999 1.2799903e-08 -1.2382467e-10)
(-0.0033256201 -1.1179301e-08 -6.8820589e-11)
(-0.0033256449 -1.1397448e-08 -9.4885143e-11)
(-0.0033256452 9.8930469e-09 -4.0276473e-11)
(-0.0033256183 1.0079504e-08 -9.4660712e-11)
(-0.0024630553 -7.3806184e-09 -4.1259752e-11)
(-0.0024630844 -7.7906431e-09 -7.1634141e-11)
(-0.0024630848 6.1367784e-09 -3.0037485e-11)
(-0.0024630543 6.5006953e-09 -7.2065671e-11)
(-0.0017057829 -3.4615039e-09 -2.5172917e-11)
(-0.0017058119 -3.9434675e-09 -5.4085626e-11)
(-0.0017058123 2.2897202e-09 -2.2513117e-11)
(-0.0017057827 2.7129735e-09 -5.4768018e-11)
(-0.001078725 1.2695172e-10 -1.5825415e-11)
(-0.001078751 -3.3297401e-10 -4.0850944e-11)
(-0.0010787514 -1.2076267e-09 -1.6967515e-11)
(-0.0010787254 -8.1612714e-10 -4.1569463e-11)
(-0.00058068817 3.1474591e-09 -1.0327416e-11)
(-0.00058070977 2.7720363e-09 -3.0839561e-11)
(-0.00058071007 -4.1265826e-09 -1.2842341e-11)
(-0.00058068886 -3.8259679e-09 -3.1492241e-11)
(-0.00019527222 5.5393355e-09 -6.9992026e-12)
(-0.00019528922 5.2830549e-09 -2.3242381e-11)
(-0.00019528948 -6.4126804e-09 -9.7413006e-12)
(-0.00019527309 -6.2342954e-09 -2.3789906e-11)
(0.00010097331 7.360685e-09 -4.9064784e-12)
(0.00010096034 7.2387746e-09 -1.7467954e-11)
(0.0001009601 -8.1280691e-09 -7.3922379e-12)
(0.00010097238 -8.0841766e-09 -1.7903767e-11)
(0.00033336154 8.7327427e-09 -3.531345e-12)
(0.00033335163 8.7503039e-09 -1.3081228e-11)
(0.0003333514 -9.3962285e-09 -5.6026605e-12)
(0.0003333606 -9.4894457e-09 -1.3414383e-11)
(0.00052630604 9.7972617e-09 -2.5904244e-12)
(0.00052629814 9.9572909e-09 -9.7553846e-12)
(0.00052629789 -1.0359902e-08 -4.2384905e-12)
(0.00052630511 -1.0591213e-08 -1.0002655e-11)
(0.00070224059 1.0689335e-08 -1.9250432e-12)
(0.0007022337 1.0998701e-08 -7.2427406e-12)
(0.0007022334 -1.1154362e-08 -3.197639e-12)
(0.00070223964 -1.1529084e-08 -7.4227828e-12)
(0.0008815655 1.1523116e-08 -1.4422241e-12)
(0.00088155881 1.1996633e-08 -5.3532477e-12)
(0.00088155842 -1.1893526e-08 -2.4055933e-12)
(0.00088156449 -1.2425341e-08 -5.4809493e-12)
(0.0010831481 1.2386431e-08 -1.0859427e-12)
(0.001083141 1.3049595e-08 -3.9389539e-12)
(0.0010831405 -1.2664852e-08 -1.8032269e-12)
(0.001083147 -1.3378478e-08 -4.0285097e-12)
(0.0013250784 1.3340647e-08 -8.1956392e-13)
(0.0013250704 1.4231547e-08 -2.8857187e-12)
(0.0013250697 -1.3529351e-08 -1.3464196e-12)
(0.0013250771 -1.4462439e-08 -2.9469612e-12)
(0.0016255089 1.4423029e-08 -6.1835992e-13)
(0.0016254998 1.5593894e-08 -2.1052468e-12)
(0.0016254989 -1.4524077e-08 -1.002125e-12)
(0.0016255073 -1.5728685e-08 -2.1456659e-12)
(0.0020034905 1.5649966e-08 -4.6617182e-13)
(0.0020034802 1.7168599e-08 -1.529634e-12)
(0.002003479 -1.5665404e-08 -7.4306375e-13)
(0.0020034887 -1.7209368e-08 -1.5553974e-12)
(0.0024797627 1.7020155e-08 -3.5063084e-13)
(0.0024797512 1.8971336e-08 -1.1068515e-12)
(0.0024797497 -1.6952203e-08 -5.4953918e-13)
(0.0024797605 -1.8920493e-08 -1.1225182e-12)
(0.0030774811 1.8517303e-08 -2.6292072e-13)
(0.0030774685 2.1004196e-08 -7.9676751e-13)
(0.0030774666 -1.8368524e-08 -4.0490351e-13)
(0.0030774784 -2.0864584e-08 -8.0658907e-13)
(0.0038228771 2.0112292e-08 -1.96435e-13)
(0.0038228637 2.3257665e-08 -5.7094816e-13)
(0.0038228613 -1.9885711e-08 -2.9715171e-13)
(0.0038228739 -2.3032681e-08 -5.7711973e-13)
(0.0047458494 2.1764841e-08 -1.4616809e-13)
(0.0047458354 2.5711974e-08 -4.0745591e-13)
(0.0047458325 -2.1464029e-08 -2.1728382e-13)
(0.0047458456 -2.5405644e-08 -4.1122257e-13)
(0.0058804832 2.3424836e-08 -1.0830035e-13)
(0.0058804691 2.8337886e-08 -2.8974919e-13)
(0.0058804655 -2.3053944e-08 -1.5829131e-13)
(0.0058804788 -2.7954861e-08 -2.918373e-13)
(0.007265496 2.5033508e-08 -7.9889696e-14)
(0.0072654823 3.1096939e-08 -2.0524682e-13)
(0.0072654778 -2.4597277e-08 -1.1488138e-13)
(0.0072654909 -3.0642493e-08 -2.0630769e-13)
(0.0089445996 2.652468e-08 -5.8664247e-14)
(0.0089445868 3.3941417e-08 -1.449641e-13)
(0.0089445815 -2.6028406e-08 -8.3058502e-14)
(0.0089445939 -3.3421412e-08 -1.4529654e-13)
(0.010966768 2.782625e-08 -4.2872361e-14)
(0.010966757 3.6814145e-08 -1.0204373e-13)
(0.01096675 -2.727573e-08 -5.9815117e-14)
(0.010966762 -3.6234982e-08 -1.0195429e-13)
(0.013386395 2.8862099e-08 -3.1180642e-14)
(0.013386386 3.9648303e-08 -7.1585478e-14)
(0.013386379 -2.8263554e-08 -4.290548e-14)
(0.013386388 -3.9016844e-08 -7.1282905e-14)
(0.016263324 2.9554537e-08 -2.2566528e-14)
(0.016263318 4.2367378e-08 -5.0054956e-14)
(0.016263309 -2.8914521e-08 -3.0650909e-14)
(0.016263316 -4.1690864e-08 -4.9659369e-14)
(0.019662724 2.9827369e-08 -1.6249647e-14)
(0.019662722 4.4885433e-08 -3.4887743e-14)
(0.019662712 -2.9152663e-08 -2.1803124e-14)
(0.019662716 -4.417138e-08 -3.4470007e-14)
(0.023654804 2.9609581e-08 -1.1639233e-14)
(0.023654807 4.710782e-08 -2.4236851e-14)
(0.023654796 -2.8907085e-08 -1.5438499e-14)
(0.023654797 -4.6363914e-08 -2.3838154e-14)
(0.028314332 2.8839597e-08 -8.2895882e-15)
(0.02831434 4.8932492e-08 -1.6780738e-14)
(0.028314327 -2.8116217e-08 -1.087847e-14)
(0.028314325 -4.8166479e-08 -1.6421943e-14)
(0.033719944 2.746996e-08 -5.8674363e-15)
(0.033719959 5.0252066e-08 -1.1575081e-14)
(0.033719945 -2.6732494e-08 -7.6234684e-15)
(0.033719939 -4.9471629e-08 -1.1268377e-14)
(0.039953246 2.5472199e-08 -4.124187e-15)
(0.039953268 5.0956747e-08 -7.9525924e-15)
(0.039953253 -2.4727226e-08 -5.3102133e-15)
(0.039953243 -5.0169393e-08 -7.6976812e-15)
(0.047097679 2.2841585e-08 -2.8757484e-15)
(0.047097709 5.0938263e-08 -5.4399239e-15)
(0.047097692 -2.2095358e-08 -3.6739064e-15)
(0.047097678 -5.01512e-08 -5.2316197e-15)
(0.055237167 1.9601372e-08 -1.9877155e-15)
(0.055237206 5.0094867e-08 -3.7036192e-15)
(0.055237188 -1.885972e-08 -2.520298e-15)
(0.05523717 -4.9314888e-08 -3.5361004e-15)
(0.064454551 1.5806076e-08 -1.3592909e-15)
(0.064454599 4.8337444e-08 -2.50763e-15)
(0.06445458 -1.5074319e-08 -1.712875e-15)
(0.064454559 -4.7570819e-08 -2.3752898e-15)
(0.074829829 1.1543305e-08 -9.1912942e-16)
(0.074829886 4.5596675e-08 -1.6884897e-15)
(0.074829867 -1.0826182e-08 -1.1502074e-15)
(0.074829842 -4.4849057e-08 -1.5832096e-15)
(0.086438232 6.9336563e-09 -6.1153596e-16)
(0.086438299 4.1831106e-08 -1.1319923e-15)
(0.086438279 -6.2352788e-09 -7.6135229e-16)
(0.086438253 -4.1107447e-08 -1.0446023e-15)
(0.099348183 2.128253e-09 -4.0020205e-16)
(0.099348258 3.7035827e-08 -7.5478878e-16)
(0.099348239 -1.4520862e-09 -4.9582177e-16)
(0.099348212 -3.6340331e-08 -6.8062851e-16)
(0.11361918 -2.6963774e-09 -2.555998e-16)
(0.11361926 3.1251347e-08 -5.0050994e-16)
(0.11361924 3.347514e-09 -3.1749428e-16)
(0.11361922 -3.0587444e-08 -4.3660203e-16)
(0.12929966 -7.346215e-09 -1.5643272e-16)
(0.12929975 2.4572067e-08 -3.3175294e-16)
(0.12929973 7.9700762e-09 -2.0091887e-16)
(0.12929971 -2.3942443e-08 -2.737371e-16)
(0.14642496 -1.1620306e-08 -8.9583241e-17)
(0.14642505 1.715362e-08 -2.2305184e-16)
(0.14642503 1.2215099e-08 -1.260942e-16)
(0.14642501 -1.6560292e-08 -1.6309586e-16)
(0.16501531 -1.5323518e-08 -4.6179463e-17)
(0.16501541 9.2181864e-09 -1.5071392e-16)
(0.16501539 1.5887747e-08 -7.795456e-17)
(0.16501538 -8.6626363e-09 -9.2600111e-17)
(0.18507419 -1.8280682e-08 -1.9139702e-17)
(0.18507429 1.0567712e-09 -1.0358719e-16)
(0.18507427 1.8812933e-08 -4.808725e-17)
(0.18507426 -5.4013247e-10 -4.5969572e-17)
(0.20658676 -2.0350973e-08 -3.4963298e-18)
(0.20658685 -6.9726856e-09 -7.1641172e-17)
(0.20658683 2.0849639e-08 -2.9531681e-17)
(0.20658683 7.449403e-09 -1.7561394e-17)
(0.2295188 -2.1441008e-08 5.775176e-18)
(0.22951889 -1.4452759e-08 -5.4484378e-17)
(0.22951887 2.190401e-08 -1.906401e-17)
(0.22951888 1.4888408e-08 2.8746255e-18)
(0.25381601 -2.1515013e-08 1.0054789e-17)
(0.25381609 -2.0920978e-08 -4.4217516e-17)
(0.25381607 2.1939538e-08 -1.2336802e-17)
(0.25381609 2.1314035e-08 1.6318335e-17)
(0.27940371 -2.0600429e-08 1.1502619e-17)
(0.27940378 -2.5893473e-08 -3.8796796e-17)
(0.27940375 2.0982771e-08 -5.5993002e-18)
(0.27940379 2.6241904e-08 2.5102192e-17)
(0.30618711 -1.8787923e-08 8.9075196e-18)
(0.30618717 -2.8901772e-08 -3.5171049e-17)
(0.30618714 1.9123526e-08 8.5924859e-19)
(0.30618718 2.9203043e-08 3.0944451e-17)
(0.33405208 -1.6225189e-08 6.344222e-18)
(0.33405212 -2.9546811e-08 -3.0592818e-17)
(0.33405208 1.6509092e-08 2.5469851e-18)
(0.33405214 2.9798154e-08 3.1273193e-17)
(0.3628664 -1.3103388e-08 -2.6242907e-18)
(0.36286643 -2.7567452e-08 -2.8087973e-17)
(0.36286639 1.3331193e-08 1.029117e-17)
(0.36286645 2.7766494e-08 2.8372987e-17)
(0.39248157 -9.6380088e-09 -1.6768792e-17)
(0.39248159 -2.2919279e-08 -3.2110206e-17)
(0.39248154 9.8069173e-09 2.2088663e-17)
(0.39248161 2.3064943e-08 2.6426008e-17)
(0.42273505 -6.0830619e-09 -2.9088844e-17)
(0.42273504 -1.5968086e-08 -3.3934765e-17)
(0.422735 6.1914982e-09 2.5250927e-17)
(0.42273507 1.6061124e-08 2.1097649e-17)
(0.45345289 -2.8462923e-09 -3.7505226e-17)
(0.45345287 -8.0363425e-09 -3.1667753e-17)
(0.45345284 2.9009524e-09 1.6813875e-17)
(0.45345289 8.0774482e-09 3.8516275e-18)
(0.48445277 -7.4544951e-10 -3.5302762e-17)
(0.48445276 -2.2010439e-09 -3.2298937e-17)
(0.48445274 7.6571275e-10 -8.2332878e-19)
(0.48445277 2.2118992e-09 -1.8215577e-17)
(-0.010756447 9.8027486e-10 2.3982134e-11)
(-0.010756456 7.9896467e-10 1.4420303e-11)
(-0.010756456 -1.1432038e-09 4.2100383e-11)
(-0.010756449 -1.0242355e-09 1.3292855e-11)
(-0.0033611096 6.5146451e-10 3.498998e-11)
(-0.0033611082 5.5199631e-10 9.4490203e-12)
(-0.0033611061 -1.1265605e-09 5.4277663e-11)
(-0.0033611154 -1.1852945e-09 7.9659839e-12)
(-0.0041420942 -2.0072092e-09 4.0256126e-11)
(-0.0041420772 -1.2194192e-09 5.969653e-12)
(-0.0041420766 1.2660999e-09 5.6101401e-11)
(-0.0041420977 4.0641475e-10 4.335356e-12)
(-0.0053769719 -6.182453e-09 4.2256581e-11)
(-0.0053769407 -4.9824533e-09 5.4923411e-12)
(-0.0053769399 5.2556443e-09 5.3576481e-11)
(-0.0053769742 3.9401587e-09 4.2285269e-12)
(-0.0058557653 -1.1213391e-08 4.152878e-11)
(-0.0058557311 -9.9448749e-09 5.561637e-12)
(-0.0058557308 1.0154826e-08 4.8321823e-11)
(-0.0058557648 8.7330536e-09 4.7370301e-12)
(-0.0056766955 -1.4818165e-08 3.8786224e-11)
(-0.005676676 -1.3846865e-08 5.3919882e-12)
(-0.0056766761 1.3672731e-08 4.1845801e-11)
(-0.0056766927 1.2515367e-08 4.7619813e-12)
(-0.0050674142 -1.568234e-08 3.4582784e-11)
(-0.0050674133 -1.5185899e-08 4.8896845e-12)
(-0.0050674135 1.4490024e-08 3.5195806e-11)
(-0.005067411 1.3784495e-08 4.256423e-12)
(-0.0042305058 -1.4215416e-08 2.9727714e-11)
(-0.0042305202 -1.4162086e-08 4.1808912e-12)
(-0.0042305205 1.3019208e-08 2.8939739e-11)
(-0.0042305031 1.2742083e-08 3.4632703e-12)
(-0.0033256224 -1.1189234e-08 2.4758607e-11)
(-0.0033256468 -1.1466366e-08 3.3899438e-12)
(-0.0033256471 1.0026705e-08 2.3331165e-11)
(-0.0033256205 1.0074788e-08 2.6008936e-12)
(-0.0024630566 -7.3817739e-09 2.0040049e-11)
(-0.0024630855 -7.8550429e-09 2.6296895e-12)
(-0.0024630859 6.2811337e-09 1.8479467e-11)
(-0.0024630556 6.5300376e-09 1.8069882e-12)
(-0.0017057835 -3.4487866e-09 1.5849637e-11)
(-0.0017058124 -3.9931632e-09 1.9537613e-12)
(-0.0017058127 2.4296057e-09 1.4401746e-11)
(-0.0017057832 2.762378e-09 1.149095e-12)
(-0.001078725 1.5391831e-10 1.2287675e-11)
(-0.001078751 -3.6302375e-10 1.3906068e-12)
(-0.0010787513 -1.0807218e-09 1.1054834e-11)
(-0.0010787253 -7.5626372e-10 6.4507319e-13)
(-0.00058068783 3.1860615e-09 9.3559192e-12)
(-0.00058070944 2.762126e-09 9.4949842e-13)
(-0.00058070974 -4.0160844e-09 8.3635976e-12)
(-0.00058068846 -3.7614636e-09 2.8535384e-13)
(-0.00019527169 5.5855637e-09 7.0071075e-12)
(-0.00019528872 5.2906791e-09 6.1877793e-13)
(-0.00019528898 -6.3186369e-09 6.2396005e-12)
(-0.0001952725 -6.1681228e-09 4.7403861e-14)
(0.00010097393 7.4103082e-09 5.1660271e-12)
(0.00010096091 7.2596585e-09 3.8350962e-13)
(0.00010096068 -8.0486638e-09 4.5913941e-12)
(0.00010097304 -8.017479e-09 -9.5244887e-14)
(0.00033336217 8.7820724e-09 3.7507986e-12)
(0.00033335221 8.7796439e-09 2.2286648e-13)
(0.00033335199 -9.3289269e-09 3.3329572e-12)
(0.00033336126 -9.4223989e-09 -1.6827148e-13)
(0.00052630665 9.8435475e-09 2.6825178e-12)
(0.0005262987 9.9905185e-09 1.1862587e-13)
(0.00052629846 -1.0302128e-08 2.3861599e-12)
(0.00052630574 -1.0523637e-08 -1.9364919e-13)
(0.00070224118 1.0730825e-08 1.8896861e-12)
(0.00070223425 1.1031893e-08 5.5212335e-14)
(0.00070223396 -1.1103859e-08 1.6841388e-12)
(0.00070224024 -1.1460733e-08 -1.8917803e-13)
(0.00088156608 1.1558914e-08 1.3100304e-12)
(0.00088155935 1.2026692e-08 1.9541199e-14)
(0.00088155898 -1.1848462e-08 1.1711164e-12)
(0.00088156508 -1.2356039e-08 -1.6807326e-13)
(0.0010831487 1.2416305e-08 8.9308269e-13)
(0.0010831415 1.3074244e-08 1.8056048e-15)
(0.0010831411 -1.2623812e-08 8.0143909e-13)
(0.0010831476 -1.3308141e-08 -1.3966703e-13)
(0.001325079 1.3364801e-08 5.974169e-13)
(0.001325071 1.4249218e-08 -5.1267811e-15)
(0.0013250703 -1.3491315e-08 5.3881501e-13)
(0.0013250777 -1.4391015e-08 -1.0995098e-13)
(0.0016255095 1.4441932e-08 3.9102812e-13)
(0.0016255004 1.5603601e-08 -6.0431272e-15)
(0.0016254995 -1.4488355e-08 3.5525699e-13)
(0.001625508 -1.5656157e-08 -8.2398737e-14)
(0.0020034913 1.5664245e-08 2.4937423e-13)
(0.0020034809 1.7169797e-08 -4.0321071e-15)
(0.0020034798 -1.5631566e-08 2.2882273e-13)
(0.0020034894 -1.7135715e-08 -5.8742286e-14)
(0.0024797636 1.7030506e-08 1.5385282e-13)
(0.002479752 1.8963806e-08 -1.056717e-15)
(0.0024797506 -1.6920022e-08 1.4337644e-13)
(0.0024797613 -1.8845677e-08 -3.9570953e-14)
(0.003077482 1.8524453e-08 9.0780307e-14)
(0.0030774694 2.0987921e-08 1.6557484e-15)
(0.0030774675 -1.8337936e-08 8.6603855e-14)
(0.0030774793 -2.0788561e-08 -2.4775062e-14)
(0.0038228782 2.0116972e-08 5.0109122e-14)
(0.0038228647 2.3232821e-08 3.7901263e-15)
(0.0038228624 -1.9856794e-08 4.9680173e-14)
(0.003822875 -2.2955408e-08 -1.3860782e-14)
(0.0047458507 2.1767786e-08 2.4633635e-14)
(0.0047458366 2.5678927e-08 5.2605844e-15)
(0.0047458337 -2.1436983e-08 2.6290328e-14)
(0.0047458469 -2.5327104e-08 -6.1755208e-15)
(0.0058804847 2.3426782e-08 9.2795589e-15)
(0.0058804704 2.8297122e-08 6.0925418e-15)
(0.0058804669 -2.3029075e-08 1.1950261e-14)
(0.0058804802 -2.7875087e-08 -1.0435478e-15)
(0.0072654976 2.5035205e-08 5.2037759e-16)
(0.0072654838 3.1049066e-08 6.3799634e-15)
(0.0072654794 -2.4574979e-08 3.5417696e-15)
(0.0072654925 -3.0561596e-08 2.1554865e-15)
(0.0089446014 2.6526888e-08 -4.0559226e-15)
(0.0089445885 3.388717e-08 6.2566808e-15)
(0.0089445832 -2.6009142e-08 -1.0731382e-15)
(0.0089445956 -3.3339608e-08 3.9500216e-15)
(0.01096677 2.7829739e-08 -6.0676178e-15)
(0.010966759 3.6754405e-08 5.8474802e-15)
(0.010966752 -2.7260013e-08 -3.3321355e-15)
(0.010966764 -3.6152614e-08 4.7680713e-15)
(0.013386397 2.8867636e-08 -6.5771156e-15)
(0.013386388 3.9584108e-08 5.267395e-15)
(0.013386381 -2.825192e-08 -4.1843587e-15)
(0.013386391 -3.8934409e-08 4.9428578e-15)
(0.016263326 2.9562869e-08 -6.266395e-15)
(0.01626332 4.2299943e-08 4.6085105e-15)
(0.016263311 -2.8907502e-08 -4.2413873e-15)
(0.016263319 -4.1609029e-08 4.7200252e-15)
(0.019662726 2.9839187e-08 -5.5602526e-15)
(0.019662724 4.4816154e-08 3.9365231e-15)
(0.019662714 -2.9150754e-08 -3.8876234e-15)
(0.019662719 -4.4091002e-08 4.2760818e-15)
(0.023654807 2.9625486e-08 -4.7123516e-15)
(0.02365481 4.7038283e-08 3.2956631e-15)
(0.023654798 -2.8910704e-08 -3.3565684e-15)
(0.0236548 -4.6286049e-08 3.7314113e-15)
(0.028314335 2.8860054e-08 -3.8659558e-15)
(0.028314343 4.8864471e-08 2.7122631e-15)
(0.02831433 -2.8125665e-08 -2.7835955e-15)
(0.028314328 -4.8092389e-08 3.1650761e-15)
(0.033719947 2.7495247e-08 -3.0940744e-15)
(0.033719962 5.018751e-08 2.1975802e-15)
(0.033719948 -2.674791e-08 -2.2414627e-15)
(0.033719942 -4.9402782e-08 2.6251089e-15)
(0.039953249 2.5502356e-08 -2.428082e-15)
(0.039953271 5.0897762e-08 1.7555968e-15)
(0.039953256 -2.4748541e-08 -1.7639388e-15)
(0.039953246 -5.0107452e-08 2.1358796e-15)
(0.047097682 2.2876367e-08 -1.8753655e-15)
(0.047097712 5.0887077e-08 1.3845181e-15)
(0.047097695 -2.2122253e-08 -1.3620515e-15)
(0.047097681 -5.0098004e-08 1.7096694e-15)
(0.05523717 1.9640208e-08 -1.4295089e-15)
(0.055237208 5.0053783e-08 1.0796784e-15)
(0.055237191 -1.8891594e-08 -1.0348768e-15)
(0.055237173 -4.9272415e-08 1.3487122e-15)
(0.064454554 1.584804e-08 -1.0766818e-15)
(0.064454601 4.8308779e-08 8.3274841e-16)
(0.064454583 -1.511026e-08 -7.761929e-16)
(0.064454562 -4.7541137e-08 1.050506e-15)
(0.074829832 1.158711e-08 -8.0280052e-16)
(0.074829888 4.5582683e-08 6.3612671e-16)
(0.07482987 -1.0864963e-08 -5.7524807e-16)
(0.074829845 -4.4834252e-08 8.0797046e-16)
(0.086438235 6.9776681e-09 -5.9647566e-16)
(0.086438301 4.1833881e-08 4.8322884e-16)
(0.086438282 -6.2753668e-09 -4.1983239e-16)
(0.086438255 -4.1109534e-08 6.1394961e-16)
(0.099348186 2.1705366e-09 -4.4286247e-16)
(0.099348261 3.7057192e-08 3.6517471e-16)
(0.099348241 -1.4916832e-09 -3.0084511e-16)
(0.099348214 -3.6361138e-08 4.6019737e-16)
(0.11361918 -2.6579777e-09 -3.2911425e-16)
(0.11361926 3.1292726e-08 2.7372039e-16)
(0.11361924 3.3103994e-09 -2.112379e-16)
(0.11361922 -3.0628478e-08 3.4170826e-16)
(0.12929966 -7.3139599e-09 -2.465428e-16)
(0.12929975 2.4634349e-08 2.044418e-16)
(0.12929973 7.937538e-09 -1.4235912e-16)
(0.12929971 -2.4004733e-08 2.4839604e-16)
(0.14642496 -1.1596409e-08 -1.8399457e-16)
(0.14642505 1.7237012e-08 1.5097742e-16)
(0.14642503 1.2189213e-08 -9.294182e-17)
(0.14642501 -1.6644215e-08 1.7770715e-16)
(0.16501532 -1.5309958e-08 -1.3363061e-16)