/*--------------------------------*- C++ -*----------------------------------*\
| =========                 |                                                 |
| \\      /  F ield         | OpenFOAM: The Open Source CFD Toolbox           |
|  \\    /   O peration     | Version:  3.0.1                                 |
|   \\  /    A nd           | Web:      www.OpenFOAM.org                      |
|    \\/     M anipulation  |                                                 |
\*---------------------------------------------------------------------------*/
FoamFile
{
    version     2.0;
    format      ascii;
    class       surfaceScalarField;
    location    "350";
    object      phi;
}
// * * * * * * * * * * * * * * * * * * * * * * * * * * * * * * * * * * * * * //

dimensions      [0 3 -1 0 0 0 0];

internalField   nonuniform List<scalar> 
1072
(
0.331919
-2.2551945e-07
-1.6773051e-08
0.33191905
-5.1974902e-08
3.0394624e-10
0.33191902
1.957539e-08
-2.3068047e-09
1.2748136e-08
-1.6979616e-09
0.26924388
-3.4110561e-07
-1.4978297e-08
0.26924407
-2.3778245e-07
-1.7663419e-09
0.2692439
2.1203383e-07
-1.6288564e-09
1.809489e-07
-1.5447618e-09
0.19366452
-6.3298811e-07
-1.1737738e-08
0.19366485
-5.6762463e-07
-3.2318332e-09
0.19366453
5.4883655e-07
-8.9954931e-10
5.0786701e-07
-5.9093881e-10
0.13190499
-9.8653984e-07
-9.2620666e-09
0.13190538
-9.550257e-07
-3.3982357e-09
0.13190501
9.2730123e-07
-7.4761518e-10
8.9698523e-07
6.039392e-11
0.091003374
-1.2761362e-06
-6.8126067e-09
0.091003703
-1.2790261e-06
-2.9424467e-09
0.091003396
1.2306478e-06
-8.0091288e-10
1.2235504e-06
3.6095568e-10
0.069571617
-1.415584e-06
-4.539868e-09
0.069571793
-1.4469674e-06
-2.408295e-09
0.069571635
1.3783526e-06
-9.0858993e-10
1.3944394e-06
3.3575669e-10
0.063001352
-1.3916766e-06
-2.8362633e-09
0.063001354
-1.438733e-06
-1.8046249e-09
0.063001361
1.360483e-06
-9.3459943e-10
1.3895269e-06
1.6384776e-10
0.066667626
-1.2432867e-06
-1.715516e-09
0.066667488
-1.2904518e-06
-1.2752272e-09
0.066667624
1.2172361e-06
-8.8599249e-10
1.245021e-06
-3.176796e-11
0.077163007
-1.0260972e-06
-9.9324445e-10
0.077162784
-1.0593771e-06
-8.6485369e-10
0.077162993
1.0043767e-06
-7.1382901e-10
1.0180258e-06
-1.9718676e-10
0.09239577
-7.8808101e-07
-5.3355637e-10
0.092395514
-7.9726516e-07
-5.6911868e-10
0.092395748
7.6976712e-07
-5.3274032e-10
7.5999093e-07
-3.2169338e-10
0.11127192
-5.6034957e-07
-2.7855857e-10
0.11127167
-5.3921639e-07
-3.6338153e-10
0.1112719
5.444543e-07
-3.5633175e-10
5.0567509e-07
-3.8944434e-10
0.13332859
-3.5826038e-07
-8.9909989e-11
0.13332835
-3.0352258e-07
-2.2082423e-10
0.13332856
3.4373397e-07
-1.6808112e-10
2.7310891e-07
-4.171117e-10
0.15845026
-1.8637496e-07
6.2602035e-11
0.15845006
-9.6298526e-08
-1.2721801e-10
0.15845023
1.7212658e-07
-2.6757456e-11
6.8251519e-08
-4.0570391e-10
0.18668891
-4.3199105e-08
1.5558464e-10
0.18668873
8.3218647e-08
-6.5535872e-11
0.18668888
2.8415879e-08
8.522366e-11
-1.096625e-07
-3.8546058e-10
0.21816748
7.4867172e-08
2.0798841e-10
0.21816733
2.3858539e-07
-2.4541614e-11
0.21816745
-9.0755708e-08
1.6929543e-10
-2.6409272e-07
-3.5988806e-10
0.2530376
1.7147911e-07
2.3228172e-10
0.25303747
3.7370934e-07
3.0272237e-12
0.25303757
-1.8882005e-07
2.2948237e-10
-3.9883133e-07
-3.2948089e-10
0.29146645
2.4950823e-07
2.3731039e-10
0.29146633
4.9175534e-07
2.182651e-11
0.29146641
-2.6846165e-07
2.7054883e-10
-5.1690674e-07
-2.9755106e-10
0.33363585
3.1094326e-07
2.2960642e-10
0.33363574
5.9490321e-07
3.4500202e-11
0.33363581
-3.3152384e-07
2.9700926e-10
-6.2036393e-07
-2.6641572e-10
0.37974445
3.5711415e-07
2.1422369e-10
0.37974436
6.8451738e-07
4.3196739e-11
0.37974441
-3.7923067e-07
3.1291546e-10
-7.1044544e-07
-2.3752628e-10
0.43000885
3.889779e-07
1.9513759e-10
0.43000877
7.6142485e-07
4.9524812e-11
0.4300088
-4.1246364e-07
3.1897158e-10
-7.878785e-07
-2.1202961e-10
0.48466279
4.0734415e-07
1.7540939e-10
0.48466273
8.2615511e-07
5.4220408e-11
0.48466275
-4.320069e-07
3.3132526e-10
-8.531146e-07
-1.9059316e-10
0.54395477
4.1300966e-07
1.5733042e-10
0.54395472
8.7909355e-07
5.7738049e-11
0.54395472
-4.3862037e-07
3.3344517e-10
-9.0648255e-07
-1.7378343e-10
0.60814476
4.0681716e-07
1.4256058e-10
0.60814472
9.205516e-07
6.0270702e-11
0.60814471
-4.3313894e-07
3.3348969e-10
-9.4825772e-07
-1.6211359e-10
0.67750065
3.8966744e-07
1.3230667e-10
0.67750062
9.5078369e-07
6.1851173e-11
0.6775006
-4.1646989e-07
3.3343696e-10
-9.7867596e-07
-1.5598899e-10
0.7522948
3.625104e-07
1.2773351e-10
0.75229478
9.6997868e-07
6.2430751e-11
0.75229475
-3.8957974e-07
3.3401899e-10
-9.979215e-07
-1.5567753e-10
0.83280084
3.2633542e-07
1.2908281e-10
0.83280083
9.7824648e-07
6.191049e-11
0.8328008
-3.534803e-07
3.3555578e-10
-1.0061101e-06
-1.6133077e-10
0.91929076
2.8216615e-07
1.3640408e-10
0.91929076
9.7561174e-07
6.0183e-11
0.91929072
-3.0922105e-07
3.3816347e-10
-1.0032796e-06
-1.7299193e-10
1.0120322
2.3106342e-07
1.4937888e-10
1.0120322
9.6201927e-07
5.7161602e-11
1.0120322
-2.5788982e-07
3.4183678e-10
-9.8939234e-07
-1.9059821e-10
1.1112859
1.7413347e-07
1.6794408e-10
1.111286
9.3735168e-07
5.2801894e-11
1.1112859
-2.0061996e-07
3.4649458e-10
-9.6435049e-07
-2.1398542e-10
1.2173034
1.1253985e-07
1.9192878e-10
1.2173034
9.0145719e-07
4.710067e-11
1.2173033
-1.3860086e-07
3.5200833e-10
-9.2802196e-07
-2.429113e-10
1.3303242
4.7514672e-08
2.2108154e-10
1.3303242
8.5418489e-07
4.0091218e-11
1.3303242
-7.3087992e-08
3.5822252e-10
-8.8027399e-07
-2.770709e-10
1.4505738
-1.9633859e-08
2.5509581e-10
1.4505738
7.9542432e-07
3.1931585e-11
1.4505738
-5.4096141e-09
3.6490039e-10
-8.2101188e-07
-3.1610652e-10
1.5782609
-8.7520185e-08
2.9361941e-10
1.5782609
7.2514773e-07
2.2710145e-11
1.5782609
6.3032749e-08
3.7167843e-10
-7.5022025e-07
-3.5961621e-10
1.7135749
-1.5468815e-07
3.3626764e-10
1.713575
6.4345226e-07
1.2555095e-11
1.7135749
1.3076999e-07
3.7910275e-10
-6.6800499e-07
-4.0715847e-10
1.8566837
-2.1962679e-07
3.8262379e-10
1.8566838
5.5060089e-07
1.6241693e-12
1.8566837
1.9628289e-07
3.8654373e-10
-5.7463408e-07
-4.5825234e-10
2.0077307
-2.8079567e-07
4.3224231e-10
2.0077308
4.4706081e-07
-9.9047108e-12
2.0077307
2.580266e-07
3.9388394e-10
-4.7057614e-07
-5.123805e-10
2.1668326
-3.3666009e-07
4.8464329e-10
2.1668328
3.3353829e-07
-2.1839391e-11
2.1668327
3.1446538e-07
4.0101036e-10
-3.5653566e-07
-5.6899046e-10
2.3340772
-3.8573521e-07
5.3931311e-10
2.3340774
2.1100913e-07
-3.3978112e-11
2.3340773
3.6411638e-07
4.0781913e-10
-2.3348387e-07
-6.2749512e-10
2.5095208
-4.2663867e-07
5.9570232e-10
2.5095209
8.0744194e-08
-4.6112123e-11
2.5095209
4.0560177e-07
4.1421616e-10
-1.0268479e-07
-6.8727252e-10
2.693186
-4.5815005e-07
6.532239e-10
2.6931862
-5.5670647e-08
-5.8027603e-11
2.6931861
4.3770764e-07
4.2011402e-10
3.4284237e-08
-7.4766685e-10
2.8850604
-4.7927536e-07
7.1125287e-10
2.8850606
-1.9632038e-07
-6.9506214e-11
2.8850605
4.5944798e-07
4.2543159e-10
1.7551794e-07
-8.0798996e-10
3.0850942
-4.8931406e-07
7.6912718e-10
3.0850943
-3.3895296e-07
-8.0325167e-11
3.0850943
4.7013119e-07
4.3009409e-10
3.1877469e-07
-8.6752337e-10
3.2931991
-4.8792516e-07
8.261507e-10
3.2931992
-4.8097773e-07
-9.025673e-11
3.2931992
4.6942573e-07
4.3403276e-10
4.6147441e-07
-9.255215e-10
3.5092472
-4.7518839e-07
8.815969e-10
3.5092474
-6.1947078e-07
-9.90675e-11
3.5092474
4.5742075e-07
4.3718454e-10
6.0070349e-07
-9.8121684e-10
3.7330701
-4.5165483e-07
9.3471426e-10
3.7330703
-7.5118785e-07
-1.0651745e-10
3.7330703
4.3467628e-07
4.3949227e-10
7.3322715e-07
-1.0338261e-09
3.9644584
-4.1838055e-07
9.8473238e-10
3.9644586
-8.7258639e-07
-1.1235911e-10
3.9644586
4.0225619e-07
4.4090517e-10
8.5551098e-07
-1.0825582e-09
4.2031617
-3.7693506e-07
1.0308686e-09
4.2031619
-9.798595e-07
-1.163374e-10
4.2031619
3.6173604e-07
4.41379e-10
9.6375418e-07
-1.126624e-09
4.4488888
-3.2937531e-07
1.0723355e-09
4.4488889
-1.0689864e-06
-1.1819035e-10
4.4488889
3.1517607e-07
4.4087496e-10
1.0539392e-06
-1.1652473e-09
4.7013082
-2.7817509e-07
1.1083478e-09
4.7013083
-1.135807e-06
-1.1765261e-10
4.7013083
2.6504954e-07
4.3935764e-10
1.1219054e-06
-1.1976778e-09
4.9600495
-2.2610018e-07
1.1381303e-09
4.9600496
-1.176132e-06
-1.1445935e-10
4.9600496
2.1411642e-07
4.3678798e-10
1.1634573e-06
-1.2232044e-09
5.2247046
-1.7602151e-07
1.1609251e-09
5.2247046
-1.1859054e-06
-1.083532e-10
5.2247046
1.6523508e-07
4.3311289e-10
1.1745268e-06
-1.2411665e-09
5.4948293
-1.3066423e-07
1.176002e-09
5.4948292
-1.1614478e-06
-9.9090868e-11
5.4948293
1.2111005e-07
4.2824804e-10
1.1514146e-06
-1.250961e-09
5.7699458
-9.2299458e-08
1.1826726e-09
5.7699458
-1.0998189e-06
-8.6442312e-11
5.7699458
8.398309e-08
4.2205462e-10
1.0911521e-06
-1.2520418e-09
6.0495453
-6.2400582e-08
1.1803138e-09
6.0495452
-9.9936386e-07
-7.0175305e-11
6.0495452
5.5290553e-08
4.143198e-10
9.9205015e-07
-1.2439017e-09
6.3330902
-4.1308716e-08
1.1684131e-09
6.3330901
-8.6054989e-07
-5.0017541e-11
6.3330901
3.5332814e-08
4.0477293e-10
8.5453875e-07
-1.2260288e-09
6.6200181
-2.7986453e-08
1.146658e-09
6.6200179
-6.8726052e-07
-2.5542962e-11
6.6200179
2.3036622e-08
3.9321047e-10
6.8247167e-07
-1.1978529e-09
6.9097444
-1.9993282e-08
1.1149992e-09
6.9097442
-4.8877766e-07
4.3915521e-12
6.9097442
1.5946617e-08
3.7973482e-10
4.851236e-07
-1.1587999e-09
7.2016666
-1.3891529e-08
1.0739953e-09
7.2016664
-2.826411e-07
4.1881458e-11
7.2016664
1.0662423e-08
3.6553757e-10
2.8007947e-07
-1.1089856e-09
7.4951676
-6.61099e-09
1.0234433e-09
7.4951674
-9.9544246e-08
9.284937e-11
7.4951674
4.2882618e-09
3.5368112e-10
9.8129899e-08
-1.0460815e-09
7.7896201
8.5888007e-10
7.78962
1.4115023e-10
7.78962
3.2258927e-10
-8.5590496e-10
0.33191902
-4.0019981e-08
0.33191904
-5.4941865e-08
0.33191901
2.9748291e-08
3.7809904e-08
0.26924388
-2.2966374e-07
0.26924406
-2.3417482e-07
0.26924387
2.2071395e-07
2.0808785e-07
0.19366453
-5.5893976e-07
0.19366486
-5.5496586e-07
0.19366453
5.519163e-07
5.2678827e-07
0.13190502
-9.360146e-07
0.13190541
-9.3741154e-07
0.13190503
9.2694518e-07
9.081857e-07
0.091003431
-1.2408188e-06
0.091003756
-1.258374e-06
0.09100345
1.2275517e-06
1.2283255e-06
0.069571688
-1.3903576e-06
0.069571858
-1.4256812e-06
0.069571706
1.3732816e-06
1.39476e-06
0.063001421
-1.3737374e-06
0.063001416
-1.4189069e-06
0.063001429
1.3542698e-06
1.3873911e-06
0.066667681
-1.2310603e-06
0.066667536
-1.2736184e-06
0.066667676
1.2105509e-06
1.2419779e-06
0.077163043
-1.0183268e-06
0.077162816
-1.0463143e-06
0.077163028
9.9780469e-07
1.0149646e-06
0.09239579
-7.8384085e-07
0.092395531
-7.880413e-07
0.092395766
7.6355396e-07
7.5718437e-07
0.11127193
-5.5879017e-07
0.11127168
-5.3339802e-07
0.1112719
5.3863378e-07
5.0303823e-07
0.13332859
-3.5858285e-07
0.13332835
-3.0042073e-07
0.13332856
3.3831544e-07
2.7042076e-07
0.15845026
-1.8778836e-07
0.15845005
-9.5182241e-08
0.15845023
1.6709458e-07
6.5356425e-08
0.18668891
-4.5184808e-08
0.18668873
8.2997492e-08
0.18668887
2.374713e-08
-1.1285945e-07
0.21816748
7.2631245e-08
0.21816732
2.3754114e-07
0.21816744
-9.5071399e-08
-2.6764078e-07
0.2530376
1.6917206e-07
0.25303746
3.7221786e-07
0.25303756
-1.9278449e-07
-4.0269805e-07
0.29146644
2.4721626e-07
0.29146632
4.9007321e-07
0.2914664
-2.7207558e-07
-5.2100972e-07
0.33363584
3.0869878e-07
0.33363573
5.9319689e-07
0.33363579
-3.3479263e-07
-6.2460079e-07
0.37974444
3.5492288e-07
0.37974435
6.8288693e-07
0.37974439
-3.8216684e-07
-7.1471451e-07
0.43000884
3.868356e-07
0.43000876
7.5992557e-07
0.43000879
-4.1509266e-07
-7.9208874e-07
0.48466278
4.0524529e-07
0.48466271
8.2481414e-07
0.48466273
-4.3432682e-07
-8.5719433e-07
0.54395476
4.1095098e-07
0.54395471
8.7791956e-07
0.54395471
-4.4065906e-07
-9.1038024e-07
0.60814475
4.0479818e-07
0.6081447
9.1954197e-07
0.6081447
-4.3492859e-07
-9.5193901e-07
0.67750064
3.8768981e-07
0.6775006
9.4992909e-07
0.67750059
-4.1804147e-07
-9.8211968e-07
0.75229479
3.6057871e-07
0.75229477
9.6926587e-07
0.75229474
-3.9096231e-07
-1.0011159e-06
0.83280083
3.2445557e-07
0.83280082
9.7765984e-07
0.83280078
-3.5470102e-07
-1.0090496e-06
0.91929075
2.8034417e-07
0.91929075
9.7513412e-07
0.9192907
-3.1030548e-07
-1.0059625e-06
1.0120322
2.2930408e-07
1.0120322
9.6163242e-07
1.0120321
-2.5886221e-07
-9.9181904e-07
1.1112859
1.7244059e-07
1.1112859
9.3703658e-07
1.1112859
-2.0150354e-07
-9.6652235e-07
1.2173034
1.1091659e-07
1.2173034
9.0119424e-07
1.2173033
-1.3941791e-07
-9.2994063e-07
1.3303242
4.5963963e-08
1.3303242
8.5395397e-07
1.3303242
-7.3859984e-08
-8.819411e-07
1.4505738
-2.110897e-08
1.4505738
7.9520528e-07
1.4505738
-6.1572634e-09
-8.2242893e-07
1.5782609
-8.8916184e-08
1.5782609
7.2492038e-07
1.5782609
6.2288797e-08
-7.5138871e-07
1.7135749
-1.5600081e-07
1.713575
6.4319655e-07
1.7135749
1.3001145e-07
-6.6892645e-07
1.8566837
-2.2085097e-07
1.8566838
5.5029707e-07
1.8566837
1.9549247e-07
-5.7531048e-07
2.0077307
-2.8192537e-07
2.0077308
4.4668968e-07
2.0077307
2.5718832e-07
-4.7101006e-07
2.1668326
-3.3768836e-07
2.1668328
3.3308143e-07
2.1668327
3.1356477e-07
-3.567305e-07
2.3340772
-3.8665437e-07
2.3340774
2.1044927e-07
2.3340773
3.6314083e-07
-2.3344414e-07
2.5095208
-4.2744054e-07
2.5095209
8.0065544e-08
2.5095209
4.0454073e-07
-1.0241629e-07
2.693186
-4.5882627e-07
2.6931862
-5.6482e-08
2.6931861
4.3655294e-07
3.4774226e-08
2.8850604
-4.7981786e-07
2.8850606
-1.9727604e-07
2.8850605
4.5819421e-07
1.7622052e-07
3.0850942
-4.8971558e-07
3.0850943
-3.4006174e-07
3.0850943
4.6877603e-07
3.1967917e-07
3.2931991
-4.8817992e-07
3.2931992
-4.8224517e-07
3.2931992
4.6797041e-07
4.6256824e-07
3.5092472
-4.7529277e-07
3.5092474
-6.2089864e-07
3.5092474
4.5587051e-07
6.0197211e-07
3.7330701
-4.5160826e-07
3.7330703
-7.5277353e-07
3.7330703
4.3304089e-07
7.3465393e-07
3.9644585
-4.1818648e-07
3.9644586
-8.7432245e-07
3.9644586
4.0055057e-07
8.570771e-07
4.2031618
-3.7660196e-07
4.2031619
-9.8173309e-07
4.2031619
3.5998074e-07
9.6543853e-07
4.4488888
-3.2891785e-07
4.4488889
-1.0709789e-06
4.4488889
3.1339784e-07
1.0557183e-06
4.7013082
-2.7761526e-07
4.7013083
-1.1378934e-06
4.7013084
2.6328164e-07
1.1237529e-06
4.9600495
-2.2546826e-07
4.9600496
-1.1782808e-06
4.9600496
2.1239868e-07
1.1653444e-06
5.2247046
-1.7535678e-07
5.2247046
-1.1880785e-06
5.2247046
1.6361348e-07
1.1764219e-06
5.4948293
-1.3001493e-07
5.4948292
-1.1636e-06
5.4948293
1.1963553e-07
1.1532835e-06
5.7699458
-9.1721709e-08
5.7699458
-1.1018981e-06
5.7699458
8.2709533e-08
1.09296e-06
6.0495453
-6.1955648e-08
6.0495452
-1.001312e-06
6.0495452
5.4271904e-08
9.9376421e-07
6.3330902
-4.1057983e-08
6.3330901
-8.6230423e-07
6.3330901
3.4620064e-08
8.5613552e-07
6.6200181
-2.7983274e-08
6.6200179
-6.8875946e-07
6.620018
2.2676968e-08
6.8395011e-07
6.9097445
-2.0271711e-08
6.9097443
-4.8997109e-07
6.9097443
1.5988316e-08
4.8652881e-07
7.2016666
-1.4445518e-08
7.2016664
-2.8352246e-07
7.2016664
1.1168819e-08
2.8154577e-07
7.4951676
-7.381946e-09
7.4951674
-1.000841e-07
7.4951675
5.2982548e-09
9.9882685e-08
7.7896201
7.78962
7.78962
)
;

boundaryField
{
    movingWall
    {
        type            calculated;
        value           uniform 0;
    }
    CPLReceiveMD
    {
        type            calculated;
        value           uniform 0;
    }
    streamwiseIn
    {
        type            cyclic;
        value           nonuniform List<scalar> 
120
(
-0.33191902
-0.26924374
-0.19366423
-0.13190464
-0.09100308
-0.069571469
-0.063001366
-0.066667767
-0.077163219
-0.092396005
-0.11127215
-0.13332879
-0.15845044
-0.18668906
-0.2181676
-0.2530377
-0.29146653
-0.33363591
-0.3797445
-0.43000888
-0.48466281
-0.54395478
-0.60814475
-0.67750063
-0.75229477
-0.83280081
-0.91929072
-1.0120321
-1.1112859
-1.2173033
-1.3303241
-1.4505737
-1.5782608
-1.7135749
-1.8566836
-2.0077306
-2.1668326
-2.3340772
-2.5095207
-2.693186
-2.8850604
-3.0850942
-3.2931991
-3.5092472
-3.7330701
-3.9644585
-4.2031618
-4.4488888
-4.7013083
-4.9600496
-5.2247046
-5.4948293
-5.7699459
-6.0495453
-6.3330902
-6.6200181
-6.9097444
-7.2016666
-7.4951676
-7.7896201
-0.33191898
-0.26924369
-0.19366421
-0.13190465
-0.091003127
-0.069571538
-0.063001436
-0.066667822
-0.077163256
-0.092396025
-0.11127216
-0.13332879
-0.15845043
-0.18668905
-0.21816759
-0.25303769
-0.29146652
-0.3336359
-0.37974448
-0.43000887
-0.4846628
-0.54395476
-0.60814474
-0.67750062
-0.75229476
-0.83280079
-0.9192907
-1.0120321
-1.1112859
-1.2173033
-1.3303241
-1.4505737
-1.5782608
-1.7135749
-1.8566836
-2.0077306
-2.1668326
-2.3340772
-2.5095207
-2.693186
-2.8850604
-3.0850942
-3.2931991
-3.5092472
-3.7330702
-3.9644585
-4.2031618
-4.4488889
-4.7013083
-4.9600496
-5.2247046
-5.4948293
-5.7699459
-6.0495453
-6.3330903
-6.6200181
-6.9097445
-7.2016666
-7.4951676
-7.7896201
)
;
    }
    streamwiseOut
    {
        type            cyclic;
        value           nonuniform List<scalar> 
120
(
0.33191902
0.26924374
0.19366423
0.13190464
0.09100308
0.069571469
0.063001366
0.066667767
0.077163219
0.092396005
0.11127215
0.13332879
0.15845044
0.18668906
0.2181676
0.2530377
0.29146653
0.33363591
0.3797445
0.43000888
0.48466281
0.54395478
0.60814475
0.67750063
0.75229477
0.83280081
0.91929072
1.0120321
1.1112859
1.2173033
1.3303241
1.4505737
1.5782608
1.7135749
1.8566836
2.0077306
2.1668326
2.3340772
2.5095207
2.693186
2.8850604
3.0850942
3.2931991
3.5092472
3.7330701
3.9644585
4.2031618
4.4488888
4.7013083
4.9600496
5.2247046
5.4948293
5.7699459
6.0495453
6.3330902
6.6200181
6.9097444
7.2016666
7.4951676
7.7896201
0.33191898
0.26924369
0.19366421
0.13190465
0.091003127
0.069571538
0.063001436
0.066667822
0.077163256
0.092396025
0.11127216
0.13332879
0.15845043
0.18668905
0.21816759
0.25303769
0.29146652
0.3336359
0.37974448
0.43000887
0.4846628
0.54395476
0.60814474
0.67750062
0.75229476
0.83280079
0.9192907
1.0120321
1.1112859
1.2173033
1.3303241
1.4505737
1.5782608
1.7135749
1.8566836
2.0077306
2.1668326
2.3340772
2.5095207
2.693186
2.8850604
3.0850942
3.2931991
3.5092472
3.7330702
3.9644585
4.2031618
4.4488889
4.7013083
4.9600496
5.2247046
5.4948293
5.7699459
6.0495453
6.3330903
6.6200181
6.9097445
7.2016666
7.4951676
7.7896201
)
;
    }
    front
    {
        type            cyclic;
        value           nonuniform 0();
    }
    back
    {
        type            cyclic;
        value           nonuniform 0();
    }
    procBoundary0to1
    {
        type            processor;
        value           nonuniform List<scalar> 
240
(
-4.7297517e-09
-2.8274138e-09
4.3437664e-10
-2.5182748e-10
-2.9728904e-09
-2.8579142e-09
-1.1854486e-09
-1.9487593e-09
-1.5525852e-09
-1.594631e-09
-1.8809686e-09
-3.4531149e-09
4.1184848e-10
-8.1873523e-10
-1.5266669e-09
-3.6702811e-09
1.6492549e-09
-4.5910258e-10
-8.7945471e-10
-3.2142789e-09
1.799875e-09
-2.3898728e-10
-2.5698103e-10
-2.4567857e-09
1.5343552e-09
-1.7358631e-10
1.5962124e-10
-1.6967825e-09
1.1713296e-09
-1.7602227e-10
3.6146927e-10
-1.0617145e-09
7.3931547e-10
-1.8858822e-10
4.053518e-10
-5.8093549e-10
6.0590913e-10
-1.8825582e-10
3.536508e-10
-2.4065417e-10
4.2687163e-10
-1.7194383e-10
2.5687649e-10
-1.0588325e-11
2.5467703e-10
-1.452739e-10
1.4813759e-10
1.3870949e-10
1.1783142e-10
-1.1572764e-10
4.4393168e-11
2.1232813e-10
1.6917335e-11
-8.873948e-11
-4.5980719e-11
2.496941e-10
-5.3068216e-11
-6.7138185e-11
-1.192113e-10
2.7958128e-10
-9.8139067e-11
-5.1742169e-11
-1.7604899e-10
2.8895424e-10
-1.2400774e-10
-4.216028e-11
-2.1861056e-10
2.8350653e-10
-1.3574704e-10
-3.8716233e-11
-2.4949325e-10
2.688771e-10
-1.3773127e-10
-3.8649538e-11
-2.7152154e-10
2.4922485e-10
-1.3365954e-10
-4.0349086e-11
-2.8753461e-10
2.2655401e-10
-1.2660443e-10
-4.3111087e-11
-3.0271771e-10
2.0567295e-10
-1.1901579e-10
-4.6352676e-11
-3.0932479e-10
1.8808704e-10
-1.1277925e-10
-4.9551614e-11
-3.1319306e-10
1.74953e-10
-1.0932067e-10
-5.2269912e-11
-3.1685205e-10
1.6708905e-10
-1.1010099e-10
-5.416355e-11
-3.2068088e-10
1.6501231e-10
-1.1564764e-10
-5.4958903e-11
-3.249391e-10
1.6901422e-10
-1.2618539e-10
-5.4452745e-11
-3.2977458e-10
1.7920544e-10
-1.4164103e-10
-5.2512549e-11
-3.352452e-10
1.9554878e-10
-1.6210855e-10
-4.9079351e-11
-3.4133738e-10
2.1787977e-10
-1.8754273e-10
-4.4153451e-11
-3.479877e-10
2.459402e-10
-2.1779468e-10
-3.7780103e-11
-3.5510065e-10
2.7940198e-10
-2.5263767e-10
-3.0134623e-11
-3.6256658e-10
3.1788302e-10
-2.9178401e-10
-2.1324241e-11
-3.7003229e-10
3.6095735e-10
-3.3489844e-10
-1.1494091e-11
-3.7785902e-10
4.0816176e-10
-3.816027e-10
-8.1743242e-13
-3.8560588e-10
4.5899609e-10
-4.3145875e-10
1.0514111e-11
-3.9317733e-10
5.1292685e-10
-4.8403445e-10
2.2296906e-11
-4.004781e-10
5.6938814e-10
-5.3884013e-10
3.4319563e-11
-4.0741817e-10
6.2778174e-10
-5.9533488e-10
4.6365508e-11
-4.1391405e-10
6.8747694e-10
-6.5293851e-10
5.8214515e-11
-4.1988125e-10
7.4781109e-10
-7.1103118e-10
6.9643292e-11
-4.2525229e-10
8.080905e-10
-7.6895493e-10
8.0425083e-11
-4.2995609e-10
8.6759249e-10
-8.2601687e-10
9.0329171e-11
-4.3392668e-10
9.2556827e-10
-8.8149293e-10
9.9119773e-11
-4.3710312e-10
9.8124788e-10
-9.3463349e-10
1.0655494e-10
-4.3942986e-10
1.0338463e-09
-9.8466962e-10
1.1238589e-10
-4.4085747e-10
1.082571e-09
-1.0308198e-09
1.1635645e-10
-4.4134261e-10
1.1266318e-09
-1.0722975e-09
1.1820396e-10
-4.4084736e-10
1.1652519e-09
-1.1083183e-09
1.1766221e-10
-4.3933664e-10
1.1976804e-09
-1.1381074e-09
1.1446616e-10
-4.3677208e-10
1.2232058e-09
-1.1609073e-09
1.08358e-10
-4.3310089e-10
1.2411672e-09
-1.175988e-09
9.9093965e-11
-4.2823892e-10
1.2509615e-09
-1.1826615e-09
8.6444337e-11
-4.2204774e-10
1.2520423e-09
-1.1803051e-09
7.0176632e-11
-4.1431455e-10
1.2439022e-09
-1.168406e-09
5.0018341e-11
-4.0476904e-10
1.2260293e-09
-1.1466523e-09
2.5543299e-11
-3.9320742e-10
1.1978533e-09
-1.1149947e-09
-4.3916192e-12
-3.7973249e-10
1.1588002e-09
-1.0739916e-09
-4.1882188e-11
-3.65536e-10
1.1089858e-09
-1.0234406e-09
-9.2850692e-11
-3.5368029e-10
1.0460815e-09
-8.5887859e-10
-1.4115143e-10
-3.2258887e-10
8.559046e-10
)
;
    }
    procBoundary0to1throughfront
    {
        type            processorCyclic;
        value           nonuniform List<scalar> 
240
(
-1.7513783e-08
-1.5722523e-08
-1.2178105e-08
-9.8458137e-09
-7.2435089e-09
-4.7596601e-09
-3.0061708e-09
-1.8431759e-09
-1.0951509e-09
-6.200937e-10
-3.4623099e-10
-2.0220073e-10
-4.1149069e-12
9.9226093e-11
1.6035499e-10
1.9212943e-10
2.0363262e-10
2.0153908e-10
1.9101828e-10
1.7612256e-10
1.599769e-10
1.4493513e-10
1.3271167e-10
1.2454293e-10
1.2168898e-10
1.244449e-10
1.3285533e-10
1.4670108e-10
1.659545e-10
1.9047601e-10
2.2004185e-10
2.5436946e-10
2.9312693e-10
3.3594687e-10
3.8242688e-10
4.3210955e-10
4.8455218e-10
5.3925406e-10
5.9566734e-10
6.532064e-10
7.1124758e-10
7.6913018e-10
8.2615887e-10
8.8160793e-10
9.3472652e-10
9.8474464e-10
1.0308802e-09
1.0723461e-09
1.1083574e-09
1.1381388e-09
1.1609325e-09
1.1760085e-09
1.182678e-09
1.1803183e-09
1.1684169e-09
1.1466611e-09
1.1150018e-09
1.0739976e-09
1.0234453e-09
8.5888176e-10
7.1756722e-10
-1.3915859e-09
-2.9328008e-09
-3.1878573e-09
-2.6819599e-09
-2.1338425e-09
-1.5953965e-09
-1.1136073e-09
-7.3886163e-10
-4.7061177e-10
-2.8850408e-10
-1.6919297e-10
-9.2354361e-11
-4.2924604e-11
-1.0818577e-11
1.044445e-11
2.4923428e-11
3.6544839e-11
4.5193602e-11
5.1378201e-11
5.5899905e-11
5.9244151e-11
6.1610669e-11
6.3035558e-11
6.3470656e-11
6.2816683e-11
6.0966203e-11
5.7831983e-11
5.3369614e-11
4.757623e-11
4.0485042e-11
3.2253901e-11
2.2970996e-11
1.2763692e-11
1.7889372e-12
-9.7762294e-12
-2.1740556e-11
-3.3903165e-11
-4.6056241e-11
-5.7986641e-11
-6.9476791e-11
-8.0304611e-11
-9.0242841e-11
-9.9058529e-11
-1.06512e-10
-1.1235607e-10
-1.1633595e-10
-1.1819007e-10
-1.1765303e-10
-1.1446018e-10
-1.0835432e-10
-9.9092042e-11
-8.6443274e-11
-7.0176161e-11
-5.0018338e-11
-2.5543782e-11
4.3908296e-12
4.1880862e-11
9.2848843e-11
1.4114987e-10
-2.1061585e-09
-1.4174994e-09
-7.247997e-10
-6.2967068e-10
-7.3022235e-10
-8.7402322e-10
-9.2570811e-10
-9.0066082e-10
-7.3017187e-10
-5.4663144e-10
-3.7501156e-10
-2.1615864e-10
-5.2912247e-11
6.0531577e-11
1.4663022e-10
2.0912125e-10
2.5255821e-10
2.8133098e-10
2.9939787e-10
3.0916423e-10
3.2301575e-10
3.2681171e-10
3.2801523e-10
3.2883355e-10
3.3014225e-10
3.3231142e-10
3.3547542e-10
3.3963364e-10
3.4470962e-10
3.5057923e-10
3.5709397e-10
3.6407087e-10
3.7122734e-10
3.7878856e-10
3.8633111e-10
3.9374555e-10
4.0092521e-10
4.0777133e-10
4.1419263e-10
4.2010218e-10
4.2542776e-10
4.3009555e-10
4.3403752e-10
4.3719123e-10
4.3949988e-10
4.4091306e-10
4.4138667e-10
4.408821e-10
4.3936389e-10
4.3679335e-10
4.3311749e-10
4.2825172e-10
4.2205748e-10
4.1432217e-10
4.0477481e-10
3.9321204e-10
3.7973631e-10
3.6553889e-10
3.5368243e-10
3.2259041e-10
-6.964013e-10
-5.6559333e-10
2.1272423e-10
7.0391919e-10
8.5187775e-10
6.8621633e-10
4.1091471e-10
1.4471466e-10
-6.5014875e-11
-2.0753236e-10
-2.9209081e-10
-3.3253941e-10
-3.3441277e-10
-3.1889535e-10
-3.1436565e-10
-2.9876056e-10
-2.7729049e-10
-2.534409e-10
-2.293408e-10
-2.0539563e-10
-1.8519775e-10
-1.693758e-10
-1.5850169e-10
-1.5302361e-10
-1.5324184e-10
-1.5933225e-10
-1.7135638e-10
-1.892653e-10
-2.1290511e-10
-2.4204176e-10
-2.7637657e-10
-3.1555711e-10
-3.5918572e-10
-4.0682471e-10
-4.5799657e-10
-5.1218699e-10
-5.688461e-10
-6.2738903e-10
-6.8719591e-10
-7.4761276e-10
-8.0795262e-10
-8.674984e-10
-9.255055e-10
-9.8120725e-10
-1.033821e-09
-1.0825562e-09
-1.126624e-09
-1.1652485e-09
-1.1976797e-09
-1.2232066e-09
-1.2411686e-09
-1.250963e-09
-1.2520436e-09
-1.2439035e-09
-1.2260306e-09
-1.1978545e-09
-1.1588015e-09
-1.1089871e-09
-1.046083e-09
-8.5590616e-10
)
;
    }
}


// ************************************************************************* //
