/*--------------------------------*- C++ -*----------------------------------*\
| =========                 |                                                 |
| \\      /  F ield         | OpenFOAM: The Open Source CFD Toolbox           |
|  \\    /   O peration     | Version:  3.0.x                                 |
|   \\  /    A nd           | Web:      www.OpenFOAM.org                      |
|    \\/     M anipulation  |                                                 |
\*---------------------------------------------------------------------------*/
FoamFile
{
    version     2.0;
    format      ascii;
    class       volScalarField;
    location    "375";
    object      p;
}
// * * * * * * * * * * * * * * * * * * * * * * * * * * * * * * * * * * * * * //

dimensions      [0 2 -2 0 0 0 0];

internalField   nonuniform List<scalar> 
960
(
7.9851386e-08
1.6308041e-07
-5.0170555e-07
-5.260774e-07
5.7751002e-08
1.3552251e-07
-4.2912987e-07
-5.1202071e-07
5.9878572e-08
1.4228526e-07
-4.3773199e-07
-5.1541239e-07
1.633008e-08
8.5017397e-08
-4.048444e-07
-4.6295759e-07
4.4165657e-08
7.4433365e-08
-4.0802492e-07
-4.3740919e-07
6.6457249e-08
6.7756418e-08
-3.8518234e-07
-3.9804857e-07
7.7068027e-08
5.8540548e-08
-3.4224259e-07
-3.4446926e-07
7.7105822e-08
4.6154761e-08
-2.8871331e-07
-2.8275803e-07
6.9632695e-08
3.1258785e-08
-2.3208212e-07
-2.1881785e-07
5.7463272e-08
1.4962744e-08
-1.7673251e-07
-1.5689399e-07
4.2351529e-08
-2.0213029e-09
-1.2454746e-07
-9.9258948e-08
2.5298956e-08
-1.9424401e-08
-7.6047758e-08
-4.6763973e-08
6.9662398e-09
-3.7146979e-08
-3.1314668e-08
4.9770445e-10
-1.2087603e-08
-5.5132002e-08
9.5625112e-09
4.2742305e-08
-3.1332802e-08
-7.3308073e-08
4.6391603e-08
8.0269163e-08
-5.0289418e-08
-9.1551351e-08
7.8959452e-08
1.1338463e-07
-6.8566992e-08
-1.0975728e-07
1.0713087e-07
1.4240677e-07
-8.5893372e-08
-1.2783335e-07
1.3091636e-07
1.6766867e-07
-1.0212142e-07
-1.4572629e-07
1.5047967e-07
1.895235e-07
-1.1721268e-07
-1.6342515e-07
1.6611145e-07
2.083447e-07
-1.3121139e-07
-1.8095459e-07
1.7818253e-07
2.2451336e-07
-1.4421709e-07
-1.9836965e-07
1.8709343e-07
2.3838506e-07
-1.5635969e-07
-2.1574118e-07
1.9323219e-07
2.5027961e-07
-1.6777907e-07
-2.331438e-07
1.9694503e-07
2.6046782e-07
-1.7860969e-07
-2.5064613e-07
1.9852042e-07
2.6916539e-07
-1.8897027e-07
-2.6830312e-07
1.9818478e-07
2.7653277e-07
-1.9895686e-07
-2.8614958e-07
1.9610712e-07
2.8268017e-07
-2.0863877e-07
-3.0419525e-07
1.9240925e-07
2.8767568e-07
-2.1805664e-07
-3.2242145e-07
1.8717838e-07
2.9155483e-07
-2.2722268e-07
-3.4077927e-07
1.8048027e-07
2.9432997e-07
-2.3612256e-07
-3.5918928e-07
1.7237109e-07
2.9599871e-07
-2.4471881e-07
-3.7754267e-07
1.629071e-07
2.9655064e-07
-2.5295535e-07
-3.9570379e-07
1.5215162e-07
2.959721e-07
-2.6076307e-07
-4.1351387e-07
1.4017957e-07
2.9424912e-07
-2.6806581e-07
-4.3079572e-07
1.2707963e-07
2.9136862e-07
-2.7478662e-07
-4.4735925e-07
1.1295444e-07
2.8731845e-07
-2.8085375e-07
-4.6300734e-07
9.7919449e-08
2.8208661e-07
-2.8620611e-07
-4.7754208e-07
8.2100883e-08
2.7566025e-07
-2.9079789e-07
-4.9077092e-07
6.5633155e-08
2.6802484e-07
-2.9460224e-07
-5.025128e-07
4.865608e-08
2.5916397e-07
-2.9761374e-07
-5.1260413e-07
3.1312091e-08
2.4905987e-07
-2.9984974e-07
-5.2090456e-07
1.3743615e-08
2.3769516e-07
-3.0135051e-07
-5.2730292e-07
-3.9093382e-09
2.2505618e-07
-3.021782e-07
-5.3172306e-07
-2.1511335e-08
2.1113724e-07
-3.024146e-07
-5.3412992e-07
-3.8933361e-08
1.9594698e-07
-3.0215769e-07
-5.3453593e-07
-5.6054319e-08
1.7951628e-07
-3.0151718e-07
-5.3300753e-07
-7.2762023e-08
1.6190809e-07
-3.006087e-07
-5.2967156e-07
-8.8953458e-08
1.4322911e-07
-2.9954698e-07
-5.2472115e-07
-1.04534e-07
1.2364318e-07
-2.9843807e-07
-5.1841997e-07
-1.1941497e-07
1.0338567e-07
-2.9737126e-07
-5.1110346e-07
-1.335088e-07
8.2777742e-08
-2.9641144e-07
-5.0317498e-07
-1.4672063e-07
6.2238097e-08
-2.9559366e-07
-4.9509439e-07
-1.5893498e-07
4.2288907e-08
-2.9492235e-07
-4.8735702e-07
-1.6999583e-07
2.3551588e-08
-2.9437821e-07
-4.8045847e-07
-1.7967972e-07
6.7231015e-09
-2.93935e-07
-4.7482809e-07
-1.8766645e-07
-7.4941163e-09
-2.9359199e-07
-4.7074e-07
-1.9352091e-07
-1.8518646e-08
-2.9346217e-07
-4.6851246e-07
-1.9668682e-07
-2.578804e-08
-2.9386014e-07
-4.6934065e-07
-1.9665097e-07
-2.8074264e-08
-2.953739e-07
-4.7597796e-07
-1.929288e-07
-2.305898e-08
1.0658769e-07
1.312509e-07
-4.4835645e-07
-4.75226e-07
8.0537535e-08
1.526987e-07
-4.1320292e-07
-4.8152288e-07
1.0385207e-07
2.0731037e-07
-4.4292812e-07
-4.9867115e-07
6.7330565e-08
1.6586571e-07
-4.057519e-07
-4.3517184e-07
8.2723974e-08
1.5275365e-07
-4.0369514e-07
-3.9812965e-07
9.0813664e-08
1.368003e-07
-3.800284e-07
-3.5357565e-07
9.0725224e-08
1.1755439e-07
-3.4009472e-07
-3.0120869e-07
8.378537e-08
9.6150439e-08
-2.9087463e-07
-2.4458389e-07
7.1822108e-08
7.3233702e-08
-2.3791477e-07
-1.8691383e-07
5.6609586e-08
4.94442e-08
-1.8482763e-07
-1.307183e-07
3.9372568e-08
2.5256472e-08
-1.3349289e-07
-7.7595093e-08
2.0916785e-08
1.1154663e-09
-8.4861332e-08
-2.8418088e-08
1.8477802e-09
-2.2620152e-08
-3.950924e-08
1.6393941e-08
-1.7327846e-08
-4.5699314e-08
2.098711e-09
5.6697689e-08
-3.6175195e-08
-6.7936304e-08
3.9560177e-08
9.2526134e-08
-5.4341135e-08
-8.9271724e-08
7.2579048e-08
1.2403846e-07
-7.1575639e-08
-1.0971806e-07
1.010172e-07
1.5148588e-07
-8.7737808e-08
-1.2934207e-07
1.2491889e-07
1.7521611e-07
-1.0278545e-07
-1.4825855e-07
1.444929e-07
1.9562803e-07
-1.1675651e-07
-1.6660774e-07
1.6007035e-07
2.1313731e-07
-1.2974496e-07
-1.845378e-07
1.7205225e-07
2.2815214e-07
-1.4187702e-07
-2.0219481e-07
1.8085948e-07
2.4105078e-07
-1.5329122e-07
-2.197155e-07
1.8689263e-07
2.5215843e-07
-1.641232e-07
-2.3722104e-07
1.9050527e-07
2.6173744e-07
-1.7449538e-07
-2.5481182e-07
1.9199037e-07
2.699852e-07
-1.8450974e-07
-2.7256278e-07
1.9157798e-07
2.7703872e-07
-1.9424369e-07
-2.9052024e-07
1.8944048e-07
2.8298315e-07
-2.0374824e-07
-3.0869955e-07
1.8570297e-07
2.8786258e-07
-2.1304785e-07
-3.2708367e-07
1.8045596e-07
2.9169135e-07
-2.2214151e-07
-3.4562268e-07
1.7376825e-07
2.9446447e-07
-2.3100492e-07
-3.6423454e-07
1.6569847e-07
2.9616635e-07
-2.3959368e-07
-3.8280701e-07
1.5630464e-07
2.9677717e-07
-2.4784748e-07
-4.0120073e-07
1.4565105e-07
2.9627703e-07
-2.5569481e-07
-4.1925337e-07
1.3381289e-07
2.9464801e-07
-2.6305837e-07
-4.3678458e-07
1.2087849e-07
2.9187461e-07
-2.6986057e-07
-4.5360167e-07
1.0694967e-07
2.8794307e-07
-2.7602908e-07
-4.695055e-07
9.214076e-08
2.8284017e-07
-2.8150195e-07
-4.8429664e-07
7.6576686e-08
2.7655184e-07
-2.8623213e-07
-4.9778147e-07
6.0390432e-08
2.6906224e-07
-2.9019116e-07
-5.0977822e-07
4.3720288e-08
2.6035356e-07
-2.9337171e-07
-5.2012281e-07
2.6707078e-08
2.5040662e-07
-2.9578914e-07
-5.2867459e-07
9.4914947e-09
2.3920283e-07
-2.9748176e-07
-5.3532227e-07
-7.7883828e-09
2.2672757e-07
-2.9850997e-07
-5.3998973e-07
-2.4999363e-08
2.1297476e-07
-2.9895412e-07
-5.4264221e-07
-4.2015155e-08
1.9795319e-07
-2.9891118e-07
-5.4329272e-07
-5.8718059e-08
1.8169462e-07
-2.9848998e-07
-5.4200867e-07
-7.5000168e-08
1.6426351e-07
-2.978051e-07
-5.3891829e-07
-9.076385e-08
1.4576858e-07
-2.9696941e-07
-5.3421637e-07
-1.0592099e-07
1.2637572e-07
-2.960854e-07
-5.2816808e-07
-1.2039044e-07
1.0632167e-07
-2.9523582e-07
-5.2110925e-07
-1.340927e-07
8.5927181e-08
-2.9447494e-07
-5.1344026e-07
-1.4694059e-07
6.5607198e-08
-2.9382254e-07
-5.0561074e-07
-1.5882431e-07
4.5874858e-08
-2.9326415e-07
-4.9809157e-07
-1.6958977e-07
2.7334798e-08
-2.9276173e-07
-4.9132868e-07
-1.7901118e-07
1.0655652e-08
-2.9227824e-07
-4.856595e-07
-1.8676751e-07
-3.5077757e-09
-2.9182142e-07
-4.8119974e-07
-1.9244672e-07
-1.4657342e-08
-2.9153851e-07
-4.7802357e-07
-1.9559378e-07
-2.2370093e-08
-2.9179316e-07
-4.7706851e-07
-1.9588144e-07
-2.5523131e-08
-2.9313013e-07
-4.8064057e-07
-1.9338506e-07
-2.2053658e-08
1.5698282e-07
1.2746049e-07
-4.4792653e-07
-5.6839201e-07
9.6506549e-08
1.2652602e-07
-3.6607359e-07
-5.3142869e-07
1.0706839e-07
1.5527157e-07
-3.7476336e-07
-5.1215813e-07
8.4960749e-08
1.1250658e-07
-3.4681229e-07
-4.4209278e-07
1.1423952e-07
1.0825563e-07
-3.5727415e-07
-4.0754551e-07
1.2901959e-07
1.0225119e-07
-3.4239704e-07
-3.6555544e-07
1.2890547e-07
9.0332873e-08
-3.0723512e-07
-3.1338627e-07
1.1813798e-07
7.3622088e-08
-2.6078037e-07
-2.5523825e-07
1.0110557e-07
5.4065293e-08
-2.101878e-07
-1.9567816e-07
8.1045841e-08
3.3265503e-08
-1.5990186e-07
-1.3814858e-07
5.9705933e-08
1.2282798e-08
-1.1182079e-07
-8.4499232e-08
3.788856e-08
-8.4873598e-09
-6.6549681e-08
-3.5404085e-08
1.5994089e-08
-2.8937651e-08
-2.4304179e-08
9.0765436e-09
-5.6750742e-09
-4.9053619e-08
1.4684674e-08
4.9115708e-08
-2.6814107e-08
-6.8861122e-08
5.0099623e-08
8.4935936e-08
-4.7127931e-08
-8.8340638e-08
8.1620401e-08
1.1675935e-07
-6.636989e-08
-1.074576e-07
1.0902687e-07
1.4482656e-07
-8.4377552e-08
-1.2620113e-07
1.3225624e-07
1.6938729e-07
-1.0108464e-07
-1.4457649e-07
1.5141779e-07
1.9073304e-07
-1.1651115e-07
-1.6261871e-07
1.6676148e-07
2.0919606e-07
-1.3074354e-07
-1.803908e-07
1.7862736e-07
2.2511177e-07
-1.4391125e-07
-1.9797605e-07
1.8739317e-07
2.3880652e-07
-1.5616524e-07
-2.1546615e-07
1.9343025e-07
2.5057805e-07
-1.6766041e-07
-2.3295103e-07
1.9707259e-07
2.6068096e-07
-1.7854181e-07
-2.5051031e-07
1.9859977e-07
2.693193e-07
-1.8893566e-07
-2.6820681e-07
1.982317e-07
2.7664525e-07
-1.9894337e-07
-2.8608083e-07
1.9613273e-07
2.8276333e-07
-2.0863803e-07
-3.0414587e-07
1.9242127e-07
2.8773774e-07
-2.1806302e-07
-3.2238585e-07
1.8718211e-07
2.9160142e-07
-2.2723245e-07
-3.4075358e-07
1.8047926e-07
2.9436501e-07
-2.3613337e-07
-3.591708e-07
1.7236767e-07
2.9602496e-07
-2.4472923e-07
-3.7752951e-07
1.6290274e-07
2.9657013e-07
-2.5296461e-07
-3.9569456e-07
1.5214719e-07
2.9598636e-07
-2.6077083e-07
-4.1350755e-07
1.4017556e-07
2.9425932e-07
-2.6807201e-07
-4.3079157e-07
1.2707625e-07
2.913757e-07
-2.7479136e-07
-4.4735667e-07
1.1295175e-07
2.8732314e-07
-2.8085719e-07
-4.630059e-07
9.7917424e-08
2.8208951e-07
-2.8620848e-07
-4.7754144e-07
8.2099436e-08
2.7566184e-07
-2.9079942e-07
-4.9077082e-07
6.5632183e-08
2.6802551e-07
-2.9460312e-07
-5.0251305e-07
4.8655478e-08
2.5916401e-07
-2.9761415e-07
-5.1260459e-07
3.1311765e-08
2.490595e-07
-2.9984983e-07
-5.2090511e-07
1.3743484e-08
2.3769457e-07
-3.0135039e-07
-5.2730351e-07
-3.9093412e-09
2.2505547e-07
-3.0217796e-07
-5.3172362e-07
-2.151126e-08
2.1113651e-07
-3.0241431e-07
-5.3413044e-07
-3.8933246e-08
1.9594628e-07
-3.0215739e-07
-5.3453639e-07
-5.605419e-08
1.7951564e-07
-3.015169e-07
-5.3300792e-07
-7.2761898e-08
1.6190753e-07
-3.0060846e-07
-5.2967188e-07
-8.8953346e-08
1.4322865e-07
-2.9954677e-07
-5.2472141e-07
-1.0453391e-07
1.236428e-07
-2.984379e-07
-5.1842018e-07
-1.194149e-07
1.0338537e-07
-2.9737114e-07
-5.1110362e-07
-1.3350874e-07
8.277751e-08
-2.9641135e-07
-5.031751e-07
-1.4672059e-07
6.2237924e-08
-2.955936e-07
-4.9509448e-07
-1.5893496e-07
4.2288782e-08
-2.9492232e-07
-4.8735708e-07
-1.6999582e-07
2.3551501e-08
-2.9437819e-07
-4.8045851e-07
-1.7967972e-07
6.723044e-09
-2.9393499e-07
-4.7482812e-07
-1.8766645e-07
-7.4941511e-09
-2.93592e-07
-4.7074001e-07
-1.9352092e-07
-1.8518665e-08
-2.9346219e-07
-4.6851246e-07
-1.9668683e-07
-2.5788048e-08
-2.9386016e-07
-4.6934066e-07
-1.9665099e-07
-2.8074264e-08
-2.9537392e-07
-4.7597796e-07
-1.9292882e-07
-2.3058977e-08
1.0523563e-07
9.8925443e-08
-4.739704e-07
-5.1593044e-07
7.870488e-08
1.2316136e-07
-4.3890156e-07
-5.2221293e-07
9.8221768e-08
1.8190157e-07
-4.6744921e-07
-5.3690486e-07
5.8533174e-08
1.4520562e-07
-4.2771327e-07
-4.6855545e-07
7.2683788e-08
1.3679708e-07
-4.2228103e-07
-4.2538595e-07
8.1131331e-08
1.2508351e-07
-3.950076e-07
-3.7463608e-07
8.2297287e-08
1.0940394e-07
-3.5166868e-07
-3.1666727e-07
7.6946071e-08
9.0835291e-08
-2.995098e-07
-2.5534699e-07
6.6548591e-08
7.0039236e-08
-2.4414164e-07
-1.9399256e-07
5.2698365e-08
4.7739377e-08
-1.891726e-07
-1.350685e-07
3.6559633e-08
2.4535067e-08
-1.3645484e-07
-8.0032101e-08
1.8946089e-08
1.0112106e-09
-8.6828382e-08
-2.9586617e-08
5.0092578e-10
-2.2372594e-08
-4.0778365e-08
1.6014287e-08
-1.8224302e-08
-4.5269555e-08
1.3052537e-09
5.6769545e-08
-3.6753803e-08
-6.7444619e-08
3.9085146e-08
9.2825546e-08
-5.4699773e-08
-8.8789997e-08
7.2311891e-08
1.2442779e-07
-7.1785697e-08
-1.0928e-07
1.0088332e-07
1.5189017e-07
-8.7850693e-08
-1.2896384e-07
1.2486714e-07
1.7559312e-07
-1.0283781e-07
-1.4794263e-07
1.4448862e-07
1.9595914e-07
-1.1677396e-07
-1.6634733e-07
1.6009052e-07
2.1341702e-07
-1.2974489e-07
-1.8432579e-07
1.7208213e-07
2.2838374e-07
-1.4187074e-07
-2.0202357e-07
1.8089012e-07
2.4124083e-07
-1.5328553e-07
-2.1957775e-07
1.8691909e-07
2.5231401e-07
-1.6412165e-07
-2.3711043e-07
1.905253e-07
2.6186494e-07
-1.7449925e-07
-2.5472308e-07
1.9200345e-07
2.7008992e-07
-1.8451887e-07
-2.7249168e-07
1.9158466e-07
2.7712486e-07
-1.9425708e-07
-2.9046341e-07
1.8944185e-07
2.8305398e-07
-2.0376457e-07
-3.0865434e-07
1.8570033e-07
2.8792065e-07
-2.1306572e-07
-3.2704794e-07
1.8045059e-07
2.9173867e-07
-2.2215969e-07
-3.4559472e-07
1.7376128e-07
2.9450269e-07
-2.310224e-07
-3.6421294e-07
1.6569082e-07
2.9619686e-07
-2.3960975e-07
-3.8279057e-07
1.5629701e-07
2.9680117e-07
-2.4786169e-07
-4.0118846e-07
1.4564393e-07
2.9629557e-07
-2.5570694e-07
-4.1924442e-07
1.3380657e-07
2.9466203e-07
-2.6306838e-07
-4.3677826e-07
1.2087312e-07
2.9188495e-07
-2.6986857e-07
-4.5359736e-07
1.0694529e-07
2.8795047e-07
-2.7603526e-07
-4.6950272e-07
9.2137315e-08
2.8284525e-07
-2.8150653e-07
-4.8429499e-07
7.6574089e-08
2.7655514e-07
-2.8623539e-07
-4.9778063e-07
6.0388562e-08
2.6906421e-07
-2.9019335e-07
-5.0977794e-07
4.3719017e-08
2.6035457e-07
-2.9337307e-07
-5.2012289e-07
2.670628e-08
2.5040697e-07
-2.9578987e-07
-5.2867489e-07
9.4910565e-09
2.3920273e-07
-2.9748204e-07
-5.3532269e-07
-7.7885607e-09
2.2672721e-07
-2.9850995e-07
-5.3999019e-07
-2.4999362e-08
2.1297425e-07
-2.9895391e-07
-5.4264266e-07
-4.2015041e-08
1.9795263e-07
-2.9891087e-07
-5.4329314e-07
-5.871788e-08
1.8169406e-07
-2.9848962e-07
-5.4200904e-07
-7.4999961e-08
1.6426299e-07
-2.9780474e-07
-5.389186e-07
-9.076364e-08
1.4576813e-07
-2.9696907e-07
-5.3421662e-07
-1.0592079e-07
1.2637533e-07
-2.960851e-07
-5.2816828e-07
-1.2039026e-07
1.0632135e-07
-2.9523557e-07
-5.211094e-07
-1.3409255e-07
8.5926933e-08
-2.9447474e-07
-5.1344037e-07
-1.4694046e-07
6.5607008e-08
-2.9382238e-07
-5.0561081e-07
-1.5882421e-07
4.5874719e-08
-2.9326403e-07
-4.9809162e-07
-1.6958969e-07
2.7334701e-08
-2.9276164e-07
-4.9132872e-07
-1.7901113e-07
1.0655589e-08
-2.9227818e-07
-4.8565952e-07
-1.8676748e-07
-3.5078126e-09
-2.9182138e-07
-4.8119974e-07
-1.9244669e-07
-1.465736e-08
-2.9153849e-07
-4.7802356e-07
-1.9559376e-07
-2.2370095e-08
-2.9179315e-07
-4.770685e-07
-1.9588143e-07
-2.5523124e-08
-2.9313012e-07
-4.8064056e-07
-1.9338505e-07
-2.2053644e-08
)
;

boundaryField
{
    movingWall
    {
        type            zeroGradient;
    }
    CPLReceiveMD
    {
        type            zeroGradient;
    }
    streamwiseIn
    {
        type            cyclic;
    }
    streamwiseOut
    {
        type            cyclic;
    }
    front
    {
        type            cyclic;
    }
    back
    {
        type            cyclic;
    }
}


// ************************************************************************* //
