/*--------------------------------*- C++ -*----------------------------------*\
| =========                 |                                                 |
| \\      /  F ield         | OpenFOAM: The Open Source CFD Toolbox           |
|  \\    /   O peration     | Version:  3.0.x                                 |
|   \\  /    A nd           | Web:      www.OpenFOAM.org                      |
|    \\/     M anipulation  |                                                 |
\*---------------------------------------------------------------------------*/
FoamFile
{
    version     2.0;
    format      ascii;
    class       volScalarField;
    location    "375";
    object      sigmazz;
}
// * * * * * * * * * * * * * * * * * * * * * * * * * * * * * * * * * * * * * //

dimensions      [0 2 -2 0 0 0 0];

internalField   nonuniform List<scalar> 
960
(
1.0067692e-08
4.7689884e-09
-3.9869512e-09
-3.5230661e-09
-2.2440692e-09
-1.8634703e-09
1.2996402e-09
2.1574656e-09
7.6802384e-09
6.5478053e-09
-9.8973409e-09
-6.7445751e-09
-1.647696e-09
4.9550796e-10
-2.8139576e-10
-3.9825027e-10
1.4087548e-09
2.7044269e-09
-2.351616e-09
-2.2799288e-09
2.7902006e-10
1.8332559e-09
-1.3539881e-09
-1.7338961e-09
2.4827111e-10
1.4690457e-09
-1.4239423e-09
-1.692558e-09
1.260397e-10
1.0612051e-09
-1.2867115e-09
-1.5157685e-09
-4.3816051e-11
6.5512263e-10
-1.0095662e-09
-1.2283358e-09
-2.7112456e-10
2.4628048e-10
-6.3680956e-10
-8.5080569e-10
-5.5126884e-10
-1.8711715e-10
-2.1360732e-10
-3.9637348e-10
-8.1457281e-10
-4.4882667e-10
1.7015206e-10
-9.0023066e-11
-1.0626188e-09
-8.7725686e-10
5.1110574e-10
3.8662069e-10
-1.2442051e-09
-1.1131841e-09
7.6208109e-10
6.6566385e-10
-1.3493901e-09
-1.3556155e-09
9.2022673e-10
9.450217e-10
-1.5688916e-09
-1.5477795e-09
1.1828552e-09
1.1689465e-09
-1.6308582e-09
-1.7247275e-09
1.2824631e-09
1.3738185e-09
-1.7816832e-09
-1.8896742e-09
1.4675293e-09
1.5646103e-09
-1.87605e-09
-1.993635e-09
1.5934024e-09
1.6937441e-09
-1.9123867e-09
-2.1371878e-09
1.6584591e-09
1.862261e-09
-1.9073832e-09
-2.2214032e-09
1.6791124e-09
1.9709591e-09
-1.9969256e-09
-2.379974e-09
1.7910959e-09
2.15315e-09
-2.0969218e-09
-2.5280399e-09
1.9104258e-09
2.3235949e-09
-2.2326053e-09
-2.579872e-09
2.062697e-09
2.3961797e-09
-2.2040043e-09
-2.6684599e-09
2.0484639e-09
2.5037003e-09
-2.2511904e-09
-2.8118456e-09
2.1083855e-09
2.6641895e-09
-2.3887331e-09
-3.024165e-09
2.2575762e-09
2.8919047e-09
-2.4062055e-09
-3.0942549e-09
2.2860488e-09
2.9758891e-09
-2.4235481e-09
-3.1411219e-09
2.314063e-09
3.0354001e-09
-2.4478009e-09
-3.2817698e-09
2.3488556e-09
3.1877036e-09
-2.4845113e-09
-3.4099023e-09
2.396068e-09
3.3267507e-09
-2.4271044e-09
-3.5292959e-09
2.3491543e-09
3.4565374e-09
-2.9447802e-09
-3.0884578e-09
2.8773096e-09
3.0257551e-09
-2.9306781e-09
-3.9767307e-09
2.8736566e-09
3.9238942e-09
-1.8320057e-09
-3.7561852e-09
1.7853966e-09
3.7131434e-09
-2.978757e-09
-4.649201e-09
2.9425402e-09
4.6159772e-09
-1.9333453e-09
-4.440181e-09
1.907537e-09
4.4168706e-09
-2.0244149e-09
-4.2425397e-09
2.0090809e-09
4.2292893e-09
-2.1416486e-09
-4.0605046e-09
2.1369075e-09
4.0574893e-09
-2.2835398e-09
-3.8987134e-09
2.2895483e-09
3.9060931e-09
-2.4478014e-09
-3.762264e-09
2.4647337e-09
3.7801782e-09
-2.6313519e-09
-4.7663123e-09
2.659368e-09
4.7948764e-09
-1.7207602e-09
-3.5883035e-09
1.7599655e-09
3.6275376e-09
-1.9305065e-09
-3.5636624e-09
1.980923e-09
3.6134659e-09
-1.0361184e-09
-3.5902978e-09
1.0976696e-09
3.6504689e-09
-2.3603107e-09
-3.6765123e-09
2.4328358e-09
3.7467655e-09
-1.4584147e-09
-3.8315716e-09
1.5417212e-09
3.9115968e-09
-5.4288751e-10
-4.0658262e-09
6.3685852e-10
4.1554058e-09
-7.1672452e-10
-3.2812323e-09
8.2148343e-10
3.3804148e-09
-1.9739143e-09
-3.7095688e-09
2.0900469e-09
3.8188964e-09
-9.8092809e-10
-3.1453044e-09
1.1097564e-09
3.2660743e-09
-1.0635254e-09
-2.7119195e-09
1.20739e-09
2.8463956e-09
-1.1120304e-09
-2.4220751e-09
1.2745097e-09
2.5735262e-09
-1.1300321e-09
-2.2837568e-09
1.31593e-09
2.4560593e-09
-1.6205027e-11
-2.2965097e-09
2.3069527e-10
2.4928922e-09
-3.7264872e-12
-1.3438971e-09
2.5037975e-10
1.5643429e-09
-1.1050085e-09
-1.5955879e-09
1.3819819e-09
1.8335138e-09
1.615054e-11
-1.6619004e-09
3.0358083e-10
1.8959983e-09
2.0247116e-10
-3.1847972e-10
2.1885156e-11
5.4014988e-10
-7.2502821e-10
-1.6485907e-09
7.7855621e-10
1.863359e-09
6.3516933e-09
6.78119e-09
-5.0686897e-09
-4.9277995e-09
-2.1135959e-09
-1.3706058e-09
2.3096172e-09
2.4921416e-09
8.3792762e-09
5.5967626e-09
-7.9437623e-09
-5.5416539e-09
3.7380019e-10
-1.5401038e-10
5.9652866e-10
2.518489e-10
2.9623334e-09
2.7589658e-09
-2.1292442e-09
-2.3168024e-09
1.6319162e-09
2.1574062e-09
-1.1897405e-09
-1.8512611e-09
1.2445713e-09
1.7974866e-09
-1.1629844e-09
-1.6859554e-09
8.0402291e-10
1.2999984e-09
-9.6456203e-10
-1.3803133e-09
3.9310276e-10
7.9193877e-10
-6.7873802e-10
-1.0114495e-09
2.1743866e-11
3.4797252e-10
-3.5344239e-10
-6.4509494e-10
-3.1948443e-10
-8.1025552e-11
-1.9036338e-11
-2.4705554e-10
-6.452222e-10
-4.4910695e-10
3.1265128e-10
1.1715125e-10
-8.229314e-10
-7.6092379e-10
4.9628071e-10
4.3889987e-10
-1.146296e-09
-1.1069849e-09
8.2261369e-10
8.0069765e-10
-1.2777714e-09
-1.2455039e-09
9.5597491e-10
9.555566e-10
-1.4098767e-09
-1.4508326e-09
1.0916001e-09
1.1765409e-09
-1.603451e-09
-1.6436686e-09
1.2923631e-09
1.385183e-09
-1.6601564e-09
-1.7142534e-09
1.3607659e-09
1.4714414e-09
-1.7670197e-09
-2.0559758e-09
1.4834862e-09
1.8281234e-09
-1.9225101e-09
-2.1026215e-09
1.6579335e-09
1.8888572e-09
-1.9218514e-09
-2.3094295e-09
1.6780367e-09
2.108822e-09
-2.0126168e-09
-2.3662641e-09
1.7901399e-09
2.1778552e-09
-2.1115876e-09
-2.5213704e-09
1.9100332e-09
2.3443421e-09
-2.1339361e-09
-2.5782406e-09
1.9521899e-09
2.4120601e-09
-2.2133436e-09
-2.6701222e-09
2.0498889e-09
2.5145202e-09
-2.2576237e-09
-2.9263315e-09
2.1107911e-09
2.7812422e-09
-2.2817545e-09
-3.0284553e-09
2.1499155e-09
2.8939559e-09
-2.4083854e-09
-3.0984933e-09
2.2900891e-09
2.9747345e-09
-2.4246424e-09
-3.2557066e-09
2.3186834e-09
3.1428498e-09
-2.3375017e-09
-3.2844389e-09
2.242943e-09
3.1826069e-09
-2.485242e-09
-3.4114265e-09
2.4014059e-09
3.3206764e-09
-2.4282526e-09
-3.52961e-09
2.3546965e-09
3.4499329e-09
-1.8369694e-09
-4.1971354e-09
1.7734454e-09
4.1284739e-09
-2.9330875e-09
-3.9747126e-09
2.8794908e-09
3.9169847e-09
-1.8350349e-09
-3.753114e-09
1.7913775e-09
3.7062447e-09
-2.982303e-09
-3.535605e-09
2.9486883e-09
3.4995577e-09
-1.9372861e-09
-4.4352657e-09
1.9138738e-09
4.4100586e-09
-2.0286369e-09
-3.1272628e-09
2.0156165e-09
3.1129789e-09
-2.1460653e-09
-4.0540586e-09
2.1436332e-09
4.0508346e-09
-2.2880988e-09
-3.8916062e-09
2.2964331e-09
3.8995897e-09
-2.4524888e-09
-3.7545692e-09
2.4717224e-09
3.7739103e-09
-2.6361874e-09
-4.7581208e-09
2.6663804e-09
4.7889573e-09
-1.7257841e-09
-3.5797258e-09
1.7668965e-09
3.6220934e-09
-1.9357691e-09
-3.5548311e-09
1.9876437e-09
3.608629e-09
-1.0416589e-09
-3.5813721e-09
1.1040271e-09
3.6463748e-09
-1.25657e-09
-3.6676716e-09
1.3290891e-09
3.7435414e-09
-1.4644539e-09
-2.713445e-09
1.546788e-09
2.7997903e-09
-5.4900039e-10
-4.0577162e-09
6.4095862e-10
4.1542075e-09
-1.8321981e-09
-3.2737221e-09
1.9339528e-09
3.3802714e-09
-8.6963985e-10
-2.5931612e-09
9.8200795e-10
2.7101584e-09
-9.8498748e-10
-3.1390418e-09
1.109756e-09
3.2676321e-09
4.394296e-11
-3.815493e-09
9.6279755e-11
3.9578409e-09
-1.1113756e-09
-2.4157003e-09
1.2714742e-09
2.5751255e-09
-1.647153e-11
-3.3853323e-09
2.0181889e-10
3.5660724e-09
-1.1183346e-09
-2.2849593e-09
1.3336561e-09
2.4911324e-09
6.4244395e-12
-2.4357224e-09
2.3973434e-10
2.6691049e-09
1.5749376e-11
-2.6800998e-09
2.539898e-10
2.9378746e-09
2.793443e-11
-1.6104855e-09
2.46634e-10
1.8757138e-09
2.0396931e-10
-1.4557965e-09
-1.7539843e-11
1.6690062e-09
-7.4082782e-10
-1.8248643e-09
8.121466e-10
1.9536778e-09
4.9109773e-09
5.2154423e-09
-3.2093434e-09
-3.2809953e-09
-5.5545489e-10
-1.6288327e-09
2.2413404e-09
2.6537773e-09
1.0946445e-08
6.5581286e-09
-9.2150046e-09
-6.6082282e-09
1.6276013e-09
6.5203564e-10
5.013379e-10
-2.3607333e-10
3.361969e-09
2.9511111e-09
-1.6124343e-09
-2.0849527e-09
1.842856e-09
2.1507166e-09
-7.0949766e-10
-1.4737096e-09
1.4736883e-09
1.8101964e-09
-8.7451367e-10
-1.3927275e-09
1.0739825e-09
1.3904682e-09
-8.4494823e-10
-1.2138965e-09
6.6449948e-10
9.4601092e-10
-6.5796687e-10
-9.4944367e-10
2.4536656e-10
5.0067695e-10
-3.5868975e-10
-6.1973417e-10
-1.4393758e-10
1.0874538e-11
-3.1408897e-11
-1.955096e-10
-5.2167409e-10
-2.9184832e-10
3.0997859e-10
7.0815313e-11
-8.5390744e-10
-7.5553874e-10
6.1678692e-10
5.1195984e-10
-1.0967319e-09
-1.0211245e-09
8.4080955e-10
7.613083e-10
-1.2460035e-09
-1.2874986e-09
9.7806276e-10
1.0169458e-09
-1.4970176e-09
-1.4978768e-09
1.2247816e-09
1.2223e-09
-1.581385e-09
-1.6883513e-09
1.3124451e-09
1.4127633e-09
-1.7480336e-09
-1.8632916e-09
1.4886503e-09
1.5928282e-09
-1.8535058e-09
-1.9746132e-09
1.6080251e-09
1.7142662e-09
-1.89759e-09
-2.1235462e-09
1.6683673e-09
1.877232e-09
-1.8979422e-09
-2.2116104e-09
1.6856443e-09
1.9819406e-09
-1.9911428e-09
-2.3728976e-09
1.7952457e-09
2.1612699e-09
-2.0935991e-09
-2.5228936e-09
1.9129244e-09
2.3296514e-09
-2.2308983e-09
-2.576102e-09
2.0640783e-09
2.4007429e-09
-2.2033257e-09
-2.6656799e-09
2.0491115e-09
2.5071705e-09
-2.2511386e-09
-2.8097825e-09
2.1085702e-09
2.6668472e-09
-2.3890334e-09
-3.0226261e-09
2.2574875e-09
2.8939482e-09
-2.4066757e-09
-3.0931037e-09
2.2858151e-09
2.9774605e-09
-2.4240723e-09
-3.140262e-09
2.3137684e-09
3.0366041e-09
-2.4483096e-09
-3.2811308e-09
2.3485526e-09
3.1886189e-09
-2.4849659e-09
-3.4094311e-09
2.3957873e-09
3.3274376e-09
-2.4274876e-09
-3.5289532e-09
2.3489115e-09
3.4570442e-09
-2.9450882e-09
-3.0882139e-09
2.8771102e-09
3.0261207e-09
-2.9309148e-09
-3.9765625e-09
2.8735002e-09
3.9241502e-09
-1.8321792e-09
-3.7560725e-09
1.7852794e-09
3.7133153e-09
-2.9788777e-09
-4.6491299e-09
2.9424563e-09
4.6160866e-09
-1.9334239e-09
-4.4401401e-09
1.9074805e-09
4.416934e-09
-2.0244607e-09
-4.2425195e-09
2.0090459e-09
4.2293198e-09
-2.1416711e-09
-4.0604991e-09
2.1368885e-09
4.0574974e-09
-2.2835455e-09
-3.8987171e-09
2.2895412e-09
3.9060868e-09
-2.4477958e-09
-3.7622731e-09
2.4647341e-09
3.7801634e-09
-2.6313403e-09
-4.7663241e-09
2.6593729e-09
4.7948573e-09
-1.7207449e-09
-3.5883163e-09
1.7599731e-09
3.6275168e-09
-1.93049e-09
-3.5636745e-09
1.9809314e-09
3.6134459e-09
-1.0361027e-09
-3.5903089e-09
1.0976786e-09
3.6504512e-09
-2.3602965e-09
-3.6765225e-09
2.432844e-09
3.7467493e-09
-1.4584019e-09
-3.83158e-09
1.5417287e-09
3.9115828e-09
-5.4287714e-10
-4.0658331e-09
6.3686552e-10
4.1553947e-09
-7.1671616e-10
-3.281238e-09
8.2148835e-10
3.3804062e-09
-1.9739076e-09
-3.709573e-09
2.0900508e-09
3.8188899e-09
-9.8092264e-10
-3.1453078e-09
1.10976e-09
3.2660695e-09
-1.0635213e-09
-2.7119214e-09
1.2073921e-09
2.8463917e-09
-1.1120281e-09
-2.4220766e-09
1.2745111e-09
2.5735236e-09
-1.1300304e-09
-2.283758e-09
1.3159313e-09
2.456058e-09
-1.6203923e-11
-2.2965102e-09
2.3069605e-10
2.4928912e-09
-3.7258426e-12
-1.3438974e-09
2.5038021e-10
1.5643422e-09
-1.1050082e-09
-1.5955882e-09
1.3819821e-09
1.8335137e-09
1.6150499e-11
-1.6619006e-09
3.0358092e-10
1.8959984e-09
2.0247096e-10
-3.1847952e-10
2.1885107e-11
5.4014993e-10
-7.2502845e-10
-1.6485905e-09
7.785561e-10
1.8633592e-09
6.3012671e-09
6.7017334e-09
-5.209494e-09
-5.1943759e-09
-2.3240524e-09
-1.474222e-09
2.2965677e-09
2.3047644e-09
8.2971615e-09
5.4263398e-09
-8.0147666e-09
-5.654127e-09
3.7646096e-10
-3.1025745e-10
4.9407121e-10
1.1497363e-10
2.9589344e-09
2.6103742e-09
-2.2466464e-09
-2.4714529e-09
1.6020776e-09
2.0385957e-09
-1.3096842e-09
-2.0225665e-09
1.2013051e-09
1.7109906e-09
-1.2819524e-09
-1.8472014e-09
7.5017038e-10
1.2353545e-09
-1.0649689e-09
-1.5103188e-09
3.3960976e-10
7.4762098e-10
-7.5892308e-10
-1.1102659e-09
-2.5293285e-11
3.1994394e-10
-4.1480315e-10
-7.1607584e-10
-3.5758088e-10
-9.7629628e-11
-6.407039e-11
-2.9523414e-10
-6.7423802e-10
-4.5758378e-10
2.8080338e-10
8.6346935e-11
-8.4398128e-10
-7.6396341e-10
4.7457276e-10
4.2051515e-10
-1.1608801e-09
-1.1070081e-09
8.0839638e-10
7.907918e-10
-1.2874966e-09
-1.2439014e-09
9.4705648e-10
9.5124735e-10
-1.4161792e-09
-1.4483002e-09
1.0862731e-09
1.175644e-09
-1.6074796e-09
-1.6407824e-09
1.289345e-09
1.3861199e-09
-1.6627759e-09
-1.7112896e-09
1.3591377e-09
1.4733669e-09
-1.7688474e-09
-2.0531229e-09
1.4826226e-09
1.8306224e-09
-1.9239554e-09
-2.1000229e-09
1.6574254e-09
1.8916102e-09
-1.9231613e-09
-2.3071055e-09
1.6776391e-09
2.1116236e-09
-2.0139171e-09
-2.3641625e-09
1.7897244e-09
2.1805826e-09
-2.1129245e-09
-2.5194769e-09
1.9095459e-09
2.3469217e-09
-2.1353076e-09
-2.5765521e-09
1.9516239e-09
2.4144477e-09
-2.2147196e-09
-2.6686327e-09
2.0492624e-09
2.5166894e-09
-2.258964e-09
-2.9250323e-09
2.110133e-09
2.7831776e-09
-2.2830218e-09
-3.0273366e-09
2.1492577e-09
2.8956539e-09
-2.4095483e-09
-3.0975425e-09
2.2894597e-09
2.9761982e-09
-2.4256789e-09
-3.2549094e-09
2.3181039e-09
3.1440885e-09
-2.3383998e-09
-3.2837821e-09
2.2424278e-09
3.1836373e-09
-2.4859993e-09
-3.410895e-09
2.4009625e-09
3.3215169e-09
-2.4288741e-09
-3.5291869e-09
2.3543261e-09
3.4506048e-09
-1.8374653e-09
-4.1968059e-09
1.7731454e-09
4.1289996e-09
-2.9334718e-09
-3.9744618e-09
2.8792552e-09
3.9173858e-09
-1.8353234e-09
-3.7529272e-09
1.7911984e-09
3.7065431e-09
-2.9825117e-09
-3.5354702e-09
2.9485575e-09
3.4997732e-09
-1.9374302e-09
-4.435172e-09
1.9137823e-09
4.4102083e-09
-2.0287305e-09
-3.1272005e-09
2.0155559e-09
3.1130775e-09
-2.1461201e-09
-4.0540199e-09
2.1435964e-09
4.0508951e-09
-2.2881259e-09
-3.8915847e-09
2.2964141e-09
3.8996224e-09
-2.4524963e-09
-3.7545597e-09
2.4717157e-09
3.7739237e-09
-2.6361815e-09
-4.7581193e-09
2.6663827e-09
4.7889578e-09
-1.725771e-09
-3.5797292e-09
1.7669041e-09
3.6220858e-09
-1.9357518e-09
-3.5548377e-09
1.9876539e-09
3.608617e-09
-1.0416396e-09
-3.5813797e-09
1.1040382e-09
3.6463614e-09
-1.2565514e-09
-3.6676791e-09
1.3291005e-09
3.7435274e-09
-1.4644373e-09
-2.7134523e-09
1.5467987e-09
2.7997768e-09
-5.4898515e-10
-4.0577226e-09
6.4096785e-10
4.1541955e-09
-1.8321852e-09
-3.2737281e-09
1.9339608e-09
3.3802616e-09
-8.6962887e-10
-2.5931657e-09
9.8201446e-10
2.7101502e-09
-9.8497893e-10
-3.1390449e-09
1.1097613e-09
3.2676253e-09
4.3949139e-11
-3.8154963e-09
9.6284052e-11
3.9578363e-09
-1.1113705e-09
-2.4157026e-09
1.2714775e-09
2.5751219e-09
-1.6467935e-11
-3.3853337e-09
2.0182122e-10
3.5660695e-09
-1.1183322e-09
-2.2849605e-09
1.3336578e-09
2.4911306e-09
6.426094e-12
-2.4357229e-09
2.3973555e-10
2.6691039e-09
1.5750408e-11
-2.6801002e-09
2.539906e-10
2.9378743e-09
2.7934966e-11
-1.6104857e-09
2.4663445e-10
1.8757135e-09
2.0396959e-10
-1.4557963e-09
-1.7539563e-11
1.6690058e-09
-7.4082744e-10
-1.8248641e-09
8.1214688e-10
1.9536778e-09
)
;

boundaryField
{
    movingWall
    {
        type            calculated;
        value           nonuniform List<scalar> 
16
(
-7.198384e-10
-7.4203828e-10
-7.198387e-10
-7.4203782e-10
-1.476325e-09
-1.6990765e-09
-1.4763246e-09
-1.6990763e-09
7.2697316e-10
7.8253424e-10
7.2697301e-10
7.825345e-10
1.6867211e-09
1.7921498e-09
1.6867214e-09
1.7921497e-09
)
;
    }
    CPLReceiveMD
    {
        type            calculated;
        value           nonuniform List<scalar> 
16
(
1.437011e-08
6.6227129e-09
4.2409945e-09
6.6302256e-09
5.005935e-09
7.1849082e-09
5.4552274e-09
7.1124874e-09
-2.8563238e-09
-4.499019e-09
-1.8739459e-09
-4.656104e-09
-3.4253013e-09
-5.3230613e-09
-3.331469e-09
-5.628804e-09
)
;
    }
    streamwiseIn
    {
        type            cyclic;
    }
    streamwiseOut
    {
        type            cyclic;
    }
    front
    {
        type            cyclic;
    }
    back
    {
        type            cyclic;
    }
}


// ************************************************************************* //
