/*--------------------------------*- C++ -*----------------------------------*\
| =========                 |                                                 |
| \\      /  F ield         | OpenFOAM: The Open Source CFD Toolbox           |
|  \\    /   O peration     | Version:  3.0.x                                 |
|   \\  /    A nd           | Web:      www.OpenFOAM.org                      |
|    \\/     M anipulation  |                                                 |
\*---------------------------------------------------------------------------*/
FoamFile
{
    version     2.0;
    format      ascii;
    class       volScalarField;
    location    "375";
    object      sigmaxy;
}
// * * * * * * * * * * * * * * * * * * * * * * * * * * * * * * * * * * * * * //

dimensions      [0 2 -2 0 0 0 0];

internalField   nonuniform List<scalar> 
960
(
0.0099969488
0.0099968632
0.0099968671
0.0099969421
0.0044681289
0.004468082
0.004468083
0.0044681325
0.004814183
0.0048141462
0.0048141433
0.0048141883
0.0047112952
0.0047113036
0.0047113015
0.0047112887
0.0042019599
0.004201917
0.0042019143
0.00420196
0.0035041964
0.0035041664
0.0035041644
0.0035041875
0.002815562
0.0028155525
0.0028155511
0.0028155539
0.0022735714
0.0022735758
0.0022735746
0.0022735668
0.0019356387
0.0019356444
0.0019356432
0.001935638
0.0017982272
0.0017982245
0.0017982232
0.0017982289
0.0018263785
0.0018263637
0.0018263614
0.0018263807
0.0019766528
0.0019766279
0.0019766253
0.0019766548
0.002209961
0.0022099296
0.0022099269
0.0022099623
0.0024964694
0.0024964347
0.0024964319
0.0024964693
0.0028159156
0.0028158822
0.0028158788
0.0028159148
0.0031559465
0.0031559163
0.0031559121
0.0031559457
0.0035099744
0.0035099471
0.0035099435
0.0035099728
0.0038752482
0.0038752245
0.0038752208
0.0038752458
0.0042513571
0.0042513371
0.0042513331
0.0042513552
0.004639159
0.0046391421
0.0046391379
0.0046391575
0.0050400633
0.0050400492
0.0050400448
0.0050400615
0.0054555844
0.0054555729
0.0054555682
0.0054555823
0.0058870863
0.0058870765
0.0058870708
0.0058870839
0.0063356501
0.0063356414
0.0063356353
0.006335648
0.0068020247
0.0068020171
0.0068020114
0.006802023
0.0072866191
0.0072866139
0.0072866071
0.0072866177
0.0077895184
0.0077895143
0.0077895065
0.0077895172
0.0083105065
0.0083105017
0.0083104943
0.0083105044
0.0088490875
0.008849084
0.0088490763
0.0088490858
0.0094045137
0.0094045116
0.0094045037
0.0094045124
0.0099757989
0.0099757977
0.0099757895
0.0099757981
0.010561737
0.010561737
0.010561725
0.010561733
0.011160898
0.011160902
0.011160891
0.011160897
0.01177167
0.011771672
0.011771666
0.011771676
0.012392249
0.012392253
0.012392247
0.012392249
0.013020636
0.013020641
0.013020635
0.013020636
0.013654676
0.013654676
0.01365467
0.013654677
0.014292045
0.014292053
0.014292041
0.014292046
0.014930292
0.014930302
0.01493029
0.014930294
0.015566829
0.015566833
0.015566829
0.015566825
0.01619894
0.016198953
0.016198949
0.016198943
0.016823852
0.016823859
0.016823856
0.016823856
0.017438685
0.017438687
0.017438685
0.017438683
0.018040506
0.018040516
0.018040515
0.018040512
0.018626376
0.018626394
0.018626387
0.018626383
0.019193336
0.019193355
0.019193349
0.019193344
0.019738454
0.01973846
0.019738469
0.019738463
0.02025883
0.02025883
0.02025884
0.020258827
0.02075163
0.020751644
0.020751642
0.020751628
0.021214146
0.021214155
0.021214161
0.021214146
0.021643764
0.021643766
0.021643773
0.021643764
0.022038026
0.022038034
0.022038035
0.022038027
0.022394646
0.022394647
0.022394656
0.022394641
0.022711525
0.022711519
0.022711534
0.02271152
0.022986786
0.022986779
0.022986787
0.022986781
0.023218766
0.023218764
0.023218765
0.023218754
0.023406077
0.023406066
0.023406079
0.023406064
0.02354757
0.023547557
0.023547568
0.023547562
0.023642374
0.02364237
0.023642386
0.023642363
0.023689918
0.023689932
0.023689973
0.023689925
0.0099969339
0.0099968467
0.0099968502
0.0099969249
0.0044681287
0.0044680836
0.0044680857
0.0044681321
0.0048141922
0.0048141547
0.0048141534
0.0048141992
0.0047112952
0.0047113021
0.0047113013
0.0047112906
0.0042019645
0.0042019204
0.0042019184
0.0042019653
0.0035041907
0.0035041601
0.0035041585
0.0035041824
0.0028155557
0.002815546
0.0028155448
0.0028155482
0.0022735674
0.0022735718
0.0022735708
0.0022735634
0.001935638
0.0019356439
0.0019356426
0.0019356378
0.001798229
0.0017982263
0.0017982248
0.001798231
0.0018263811
0.0018263669
0.0018263645
0.0018263841
0.0019766562
0.0019766313
0.0019766285
0.0019766588
0.0022099637
0.0022099323
0.0022099295
0.0022099649
0.0024964708
0.0024964367
0.0024964332
0.0024964706
0.002815917
0.0028158829
0.0028158794
0.0028159161
0.0031559479
0.003155917
0.0031559134
0.0031559463
0.0035099751
0.0035099478
0.0035099435
0.0035099734
0.0038752476
0.0038752246
0.0038752208
0.0038752464
0.0042513571
0.0042513371
0.0042513338
0.0042513545
0.004639159
0.0046391421
0.0046391379
0.0046391568
0.0050400626
0.0050400492
0.0050400441
0.0050400614
0.0054555844
0.0054555729
0.0054555675
0.0054555823
0.0058870863
0.0058870759
0.0058870708
0.0058870838
0.0063356501
0.0063356414
0.0063356353
0.006335648
0.0068020241
0.0068020178
0.0068020114
0.0068020229
0.0072866191
0.0072866132
0.0072866071
0.0072866176
0.007789519
0.0077895136
0.0077895065
0.0077895166
0.0083105059
0.0083105023
0.0083104943
0.0083105044
0.0088490876
0.008849084
0.0088490763
0.0088490865
0.0094045144
0.0094045116
0.0094045037
0.0094045124
0.009975799
0.0099757984
0.0099757895
0.0099757981
0.010561733
0.010561732
0.010561727
0.010561735
0.0111609
0.011160903
0.011160893
0.011160899
0.011771676
0.011771679
0.011771666
0.011771676
0.012392249
0.012392253
0.01239224
0.012392249
0.013020636
0.013020641
0.013020635
0.013020636
0.013654676
0.013654676
0.01365467
0.013654677
0.014292045
0.014292053
0.014292041
0.014292046
0.014930292
0.014930302
0.014930297
0.014930294
0.015566829
0.015566833
0.015566829
0.015566825
0.01619894
0.016198953
0.016198949
0.016198943
0.016823852
0.016823859
0.016823856
0.016823856
0.017438685
0.017438687
0.017438685
0.017438683
0.018040506
0.018040516
0.018040515
0.018040512
0.018626376
0.018626394
0.018626387
0.018626389
0.019193343
0.019193355
0.019193349
0.019193344
0.019738454
0.01973846
0.019738469
0.019738456
0.020258823
0.020258837
0.02025884
0.020258827
0.020751636
0.020751644
0.020751642
0.020751635
0.021214146
0.021214155
0.021214161
0.021214152
0.021643757
0.021643766
0.021643779
0.021643764
0.022038026
0.022038027
0.022038035
0.02203802
0.022394646
0.022394647
0.022394656
0.022394641
0.022711525
0.022711525
0.022711534
0.02271152
0.022986786
0.022986779
0.022986787
0.022986775
0.023218766
0.023218757
0.023218771
0.02321876
0.023406077
0.023406066
0.023406073
0.023406064
0.02354757
0.023547557
0.023547568
0.023547555
0.023642373
0.02364237
0.023642386
0.023642363
0.023689918
0.023689932
0.023689966
0.023689925
0.0099969488
0.0099968641
0.0099968678
0.0099969412
0.0044681288
0.0044680812
0.0044680831
0.0044681325
0.0048141829
0.0048141447
0.0048141427
0.0048141905
0.0047112952
0.0047113025
0.0047113014
0.0047112899
0.00420196
0.004201916
0.0042019142
0.0042019609
0.0035041964
0.0035041657
0.0035041644
0.0035041883
0.002815562
0.002815552
0.0028155511
0.0028155545
0.0022735714
0.0022735753
0.0022735746
0.0022735671
0.0019356387
0.0019356442
0.0019356432
0.0019356382
0.0017982272
0.0017982243
0.0017982232
0.0017982291
0.0018263785
0.0018263635
0.0018263615
0.0018263808
0.0019766528
0.0019766279
0.0019766253
0.0019766549
0.002209961
0.0022099296
0.0022099269
0.0022099623
0.0024964694
0.0024964347
0.0024964319
0.0024964693
0.0028159156
0.0028158822
0.0028158788
0.0028159148
0.0031559465
0.0031559163
0.0031559121
0.0031559457
0.0035099744
0.0035099471
0.0035099435
0.0035099728
0.0038752482
0.0038752245
0.0038752208
0.0038752458
0.0042513571
0.0042513371
0.0042513331
0.0042513552
0.004639159
0.0046391421
0.0046391379
0.0046391575
0.0050400633
0.0050400492
0.0050400448
0.0050400615
0.0054555844
0.0054555729
0.0054555682
0.0054555823
0.0058870863
0.0058870765
0.0058870708
0.0058870839
0.0063356501
0.0063356414
0.0063356353
0.006335648
0.0068020247
0.0068020171
0.0068020114
0.006802023
0.0072866191
0.0072866139
0.0072866071
0.0072866177
0.0077895184
0.0077895143
0.0077895065
0.0077895172
0.0083105065
0.0083105017
0.0083104943
0.0083105044
0.0088490875
0.008849084
0.0088490763
0.0088490858
0.0094045137
0.0094045116
0.0094045037
0.0094045124
0.0099757989
0.0099757977
0.0099757895
0.0099757981
0.010561737
0.010561737
0.010561725
0.010561733
0.011160898
0.011160902
0.011160891
0.011160897
0.01177167
0.011771672
0.011771666
0.011771676
0.012392249
0.012392253
0.012392247
0.012392249
0.013020636
0.013020641
0.013020635
0.013020636
0.013654676
0.013654676
0.01365467
0.013654677
0.014292045
0.014292053
0.014292041
0.014292046
0.014930292
0.014930302
0.01493029
0.014930294
0.015566829
0.015566833
0.015566829
0.015566825
0.01619894
0.016198953
0.016198949
0.016198943
0.016823852
0.016823859
0.016823856
0.016823856
0.017438685
0.017438687
0.017438685
0.017438683
0.018040506
0.018040516
0.018040515
0.018040512
0.018626376
0.018626394
0.018626387
0.018626383
0.019193336
0.019193355
0.019193349
0.019193344
0.019738454
0.01973846
0.019738469
0.019738463
0.02025883
0.02025883
0.02025884
0.020258827
0.02075163
0.020751644
0.020751642
0.020751628
0.021214146
0.021214155
0.021214161
0.021214146
0.021643764
0.021643766
0.021643773
0.021643764
0.022038026
0.022038034
0.022038035
0.022038027
0.022394646
0.022394647
0.022394656
0.022394641
0.022711525
0.022711519
0.022711534
0.02271152
0.022986786
0.022986779
0.022986787
0.022986781
0.023218766
0.023218764
0.023218765
0.023218754
0.023406077
0.023406066
0.023406079
0.023406064
0.02354757
0.023547557
0.023547568
0.023547562
0.023642374
0.02364237
0.023642386
0.023642363
0.023689918
0.023689932
0.023689973
0.023689925
0.0099969339
0.0099968474
0.0099968502
0.0099969249
0.0044681286
0.0044680837
0.0044680858
0.004468132
0.0048141921
0.0048141541
0.0048141535
0.0048141992
0.0047112952
0.004711302
0.0047113012
0.0047112908
0.0042019646
0.0042019203
0.0042019184
0.0042019653
0.0035041908
0.00350416
0.0035041584
0.0035041824
0.0028155557
0.002815546
0.0028155447
0.0028155482
0.0022735674
0.0022735718
0.0022735708
0.0022735634
0.0019356381
0.0019356439
0.0019356426
0.0019356378
0.001798229
0.0017982263
0.0017982248
0.001798231
0.0018263811
0.0018263669
0.0018263645
0.0018263841
0.0019766562
0.0019766313
0.0019766285
0.0019766588
0.0022099637
0.0022099323
0.0022099295
0.0022099649
0.0024964708
0.0024964367
0.0024964332
0.0024964706
0.002815917
0.0028158829
0.0028158794
0.0028159161
0.0031559479
0.003155917
0.0031559134
0.0031559463
0.0035099751
0.0035099478
0.0035099435
0.0035099734
0.0038752476
0.0038752246
0.0038752208
0.0038752464
0.0042513571
0.0042513371
0.0042513338
0.0042513545
0.004639159
0.0046391421
0.0046391379
0.0046391568
0.0050400626
0.0050400492
0.0050400441
0.0050400614
0.0054555844
0.0054555729
0.0054555675
0.0054555823
0.0058870863
0.0058870759
0.0058870708
0.0058870838
0.0063356501
0.0063356414
0.0063356353
0.006335648
0.0068020241
0.0068020178
0.0068020114
0.0068020229
0.0072866191
0.0072866132
0.0072866071
0.0072866176
0.007789519
0.0077895136
0.0077895065
0.0077895166
0.0083105059
0.0083105023
0.0083104943
0.0083105044
0.0088490876
0.008849084
0.0088490763
0.0088490865
0.0094045144
0.0094045116
0.0094045037
0.0094045124
0.009975799
0.0099757984
0.0099757895
0.0099757981
0.010561733
0.010561732
0.010561727
0.010561735
0.0111609
0.011160903
0.011160893
0.011160899
0.011771676
0.011771679
0.011771666
0.011771676
0.012392249
0.012392253
0.01239224
0.012392249
0.013020636
0.013020641
0.013020635
0.013020636
0.013654676
0.013654676
0.01365467
0.013654677
0.014292045
0.014292053
0.014292041
0.014292046
0.014930292
0.014930302
0.014930297
0.014930294
0.015566829
0.015566833
0.015566829
0.015566825
0.01619894
0.016198953
0.016198949
0.016198943
0.016823852
0.016823859
0.016823856
0.016823856
0.017438685
0.017438687
0.017438685
0.017438683
0.018040506
0.018040516
0.018040515
0.018040512
0.018626376
0.018626394
0.018626387
0.018626389
0.019193343
0.019193355
0.019193349
0.019193344
0.019738454
0.01973846
0.019738469
0.019738456
0.020258823
0.020258837
0.02025884
0.020258827
0.020751636
0.020751644
0.020751642
0.020751635
0.021214146
0.021214155
0.021214161
0.021214152
0.021643757
0.021643766
0.021643779
0.021643764
0.022038026
0.022038027
0.022038035
0.02203802
0.022394646
0.022394647
0.022394656
0.022394641
0.022711525
0.022711525
0.022711534
0.02271152
0.022986786
0.022986779
0.022986787
0.022986775
0.023218766
0.023218757
0.023218771
0.02321876
0.023406077
0.023406066
0.023406073
0.023406064
0.02354757
0.023547557
0.023547568
0.023547555
0.023642373
0.02364237
0.023642386
0.023642363
0.023689918
0.023689932
0.023689966
0.023689925
)
;

boundaryField
{
    movingWall
    {
        type            calculated;
        value           nonuniform List<scalar> 
16
(
0.02370182
0.02370182
0.02370182
0.02370182
0.023701847
0.023701847
0.023701847
0.023701847
0.023701901
0.023701901
0.023701901
0.023701901
0.023701847
0.023701847
0.023701847
0.023701847
)
;
    }
    CPLReceiveMD
    {
        type            calculated;
        value           nonuniform List<scalar> 
16
(
0.015794112
0.015794115
0.015794112
0.015794115
0.015793895
0.015793891
0.015793896
0.015793891
0.015793897
0.015793892
0.015793897
0.015793892
0.015794125
0.015794123
0.015794126
0.015794123
)
;
    }
    streamwiseIn
    {
        type            cyclic;
    }
    streamwiseOut
    {
        type            cyclic;
    }
    front
    {
        type            cyclic;
    }
    back
    {
        type            cyclic;
    }
}


// ************************************************************************* //
