/*--------------------------------*- C++ -*----------------------------------*\
| =========                 |                                                 |
| \\      /  F ield         | OpenFOAM: The Open Source CFD Toolbox           |
|  \\    /   O peration     | Version:  3.0.x                                 |
|   \\  /    A nd           | Web:      www.OpenFOAM.org                      |
|    \\/     M anipulation  |                                                 |
\*---------------------------------------------------------------------------*/
FoamFile
{
    version     2.0;
    format      ascii;
    class       volScalarField;
    location    "375";
    object      sigmaxz;
}
// * * * * * * * * * * * * * * * * * * * * * * * * * * * * * * * * * * * * * //

dimensions      [0 2 -2 0 0 0 0];

internalField   nonuniform List<scalar> 
960
(
1.3294038e-11
-3.6473463e-11
-1.3294038e-11
3.6473463e-11
1.8833643e-11
-2.0255107e-10
-1.8833643e-11
3.6117052e-11
3.7780022e-11
-6.109559e-11
-5.4423424e-11
6.109559e-11
3.7443408e-11
-3.5807557e-11
-3.7443408e-11
3.5807557e-11
3.6540427e-11
-2.3667162e-11
-3.6540427e-11
2.3667162e-11
1.4785752e-11
-6.9905843e-12
-3.1429154e-11
2.3633986e-11
1.1429109e-11
-3.784695e-12
-1.1429109e-11
3.784695e-12
8.4603484e-12
-1.902809e-12
-8.4603484e-12
1.902809e-12
5.987858e-12
-8.4447571e-13
-5.9878574e-12
8.4447571e-13
4.0846535e-12
-2.9419301e-13
-4.0846541e-12
2.9419359e-13
2.7032877e-12
-2.2909642e-14
-2.7032877e-12
2.2910224e-14
1.7267228e-12
9.8848241e-14
-1.7267228e-12
-9.8849405e-14
1.0525924e-12
1.5022176e-13
-1.0525924e-12
-1.5022118e-13
6.1761725e-13
1.7264586e-13
-6.1761725e-13
-1.7264586e-13
3.2825381e-13
1.8479538e-13
-3.2825381e-13
-1.8479422e-13
1.3572563e-13
1.9388577e-13
-1.3572679e-13
-1.9388577e-13
6.5624932e-17
2.0250874e-13
-6.5624932e-17
-2.0250874e-13
-8.8510258e-14
2.0956995e-13
8.8510258e-14
-2.0956879e-13
-1.4251159e-13
2.1354228e-13
1.4251159e-13
-2.1354112e-13
-1.6898051e-13
2.1320228e-13
1.6898051e-13
-2.1320228e-13
-1.7903961e-13
2.0789894e-13
1.7903961e-13
-2.0789661e-13
-1.7834923e-13
1.9769333e-13
1.7834923e-13
-1.97691e-13
-1.7009182e-13
1.8341606e-13
1.7009182e-13
-1.8341606e-13
-1.5669164e-13
1.6600257e-13
1.5669396e-13
-1.6600024e-13
-1.4016097e-13
1.4671533e-13
1.4016097e-13
-1.4671533e-13
-1.2209872e-13
1.2666045e-13
1.2209872e-13
-1.2666045e-13
-1.0375991e-13
1.0682166e-13
1.0375991e-13
-1.06817e-13
-8.6083842e-14
8.7973202e-14
8.6083842e-14
-8.7973202e-14
-6.9727808e-14
7.0719304e-14
6.9727808e-14
-7.0719304e-14
-5.5103075e-14
5.5424896e-14
5.5103075e-14
-5.542024e-14
-4.2415918e-14
4.2244265e-14
4.2415918e-14
-4.2244265e-14
-3.171386e-14
3.1208911e-14
3.171386e-14
-3.1208911e-14
-2.2926252e-14
2.2223046e-14
2.2930908e-14
-2.221839e-14
-1.5901444e-14
1.5082137e-14
1.5901444e-14
-1.5082137e-14
-1.0439014e-14
9.5804911e-15
1.0439014e-14
-9.5804911e-15
-6.3169353e-15
5.4730841e-15
6.3262476e-15
-5.4730841e-15
-3.3080441e-15
2.5165882e-15
3.3080441e-15
-2.5165882e-15
-1.2003314e-15
4.8280394e-16
1.2096437e-15
-4.8280394e-16
2.004727e-16
-8.3237359e-16
-2.004727e-16
8.3237359e-16
1.0637732e-15
-1.6065223e-15
-1.0637732e-15
1.6065223e-15
1.5314577e-15
-1.986126e-15
-1.5314577e-15
1.986126e-15
1.7298061e-15
-2.0827182e-15
-1.7204938e-15
2.0920305e-15
1.7219556e-15
-2.0217071e-15
-1.7219556e-15
2.0217071e-15
1.604707e-15
-1.8350539e-15
-1.604707e-15
1.8443662e-15
1.4215071e-15
-1.6009461e-15
-1.4215071e-15
1.6102584e-15
1.2102972e-15
-1.3563735e-15
-1.2102972e-15
1.3563735e-15
9.7742132e-16
-1.0889492e-15
-9.9604587e-16
1.1075738e-15
7.9636493e-16
-8.6037154e-16
-7.9636493e-16
8.7899608e-16
6.1835997e-16
-6.7638669e-16
-6.1835997e-16
6.7638669e-16
4.4783892e-16
-5.0448157e-16
-4.6646347e-16
4.8585703e-16
3.4186515e-16
-3.8243487e-16
-3.4186515e-16
3.6381033e-16
2.4237005e-16
-2.513863e-16
-2.4237005e-16
2.513863e-16
1.642967e-16
-1.6258776e-16
-1.642967e-16
1.6258776e-16
1.0361015e-16
-9.5237222e-17
-1.0361015e-16
9.5237222e-17
5.7601974e-17
-4.4445896e-17
-5.7601974e-17
4.4445896e-17
2.3517031e-17
1.0270798e-17
-4.8924872e-18
8.3537459e-18
-8.5126338e-19
3.8236244e-17
8.5126338e-19
-3.8236244e-17
-1.8883379e-17
4.0505904e-17
1.8883379e-17
-4.0505904e-17
-3.529345e-17
7.1295307e-17
1.6668906e-17
-5.2670763e-17
-4.1560171e-17
6.6080853e-17
4.1560171e-17
-4.7456309e-17
-1.1213736e-11
2.7921291e-10
1.1213736e-11
-1.127789e-10
-1.7868541e-11
7.2546341e-10
1.8430256e-10
-8.9189742e-10
-3.1960616e-11
6.0694533e-10
3.1960617e-11
-6.2358873e-10
-2.700548e-11
4.9505753e-10
2.700548e-11
-4.9505753e-10
-1.26169e-11
3.615769e-10
1.26169e-11
-3.5991256e-10
-2.7992038e-12
2.4317084e-10
2.7992038e-12
-2.5981424e-10
-6.507803e-13
1.8725861e-10
6.507803e-13
-1.7061521e-10
5.9715692e-13
1.0983211e-10
-5.9715692e-13
-1.2647551e-10
9.9085159e-13
7.3998948e-11
-9.9085159e-13
-9.064235e-11
1.0486375e-12
6.0751892e-11
-1.7692039e-11
-6.0751892e-11
9.7289336e-13
1.8392357e-11
-9.7289278e-13
-1.8392357e-11
8.5610162e-13
1.222089e-11
-8.5610162e-13
-1.2220889e-11
7.350019e-13
8.0553379e-12
-7.350019e-13
-8.0553379e-12
5.9809794e-13
5.259463e-12
-5.9809678e-13
-5.2594618e-12
4.7037898e-13
3.3917751e-12
-4.7037781e-13
-3.3917751e-12
3.7910873e-13
2.1512833e-12
-3.7910873e-13
-2.1512833e-12
3.3051432e-13
1.3324005e-12
-3.3051432e-13
-1.3323993e-12
2.9715395e-13
7.9588064e-13
-2.9715395e-13
-7.9588064e-13
2.6810206e-13
4.4814239e-13
-2.6810206e-13
-4.4814356e-13
2.395908e-13
2.265511e-13
-2.395908e-13
-2.265511e-13
2.1280205e-13
8.9063504e-14
-2.1280205e-13
-8.9065832e-14
1.8723396e-13
7.0490151e-15
-1.8723396e-13
-7.0513432e-15
1.6283616e-13
-3.8255664e-14
-1.6283616e-13
3.8255664e-14
1.3931275e-13
-6.0206125e-14
-1.3931507e-13
6.0206125e-14
1.1695355e-13
-6.7239677e-14
-1.1695122e-13
6.7239677e-14
9.6209912e-14
-6.5372112e-14
-9.6209912e-14
6.5372112e-14
7.743519e-14
-5.8645704e-14
-7.743519e-14
5.8641048e-14
6.08632e-14
-4.9692257e-14
-6.08632e-14
4.9692257e-14
4.6602333e-14
-4.0187126e-14
-4.6602333e-14
4.0187126e-14
3.4638866e-14
-3.1133578e-14
-3.4638866e-14
3.1133578e-14
2.4853949e-14
-2.3086515e-14
-2.4853949e-14
2.3086515e-14
1.7058345e-14
-1.6287863e-14
-1.7058345e-14
1.6287863e-14
1.1019263e-14
-1.078646e-14
-1.1019263e-14
1.0781804e-14
6.4819421e-15
-6.5134629e-15
-6.4819421e-15
6.5134629e-15
3.1899159e-15
-3.3362717e-15
-3.1899159e-15
3.3362717e-15
9.0276323e-16
-1.0764598e-15
-9.0276323e-16
1.0764598e-15
-5.9886885e-16
4.4092448e-16
5.9886885e-16
-4.4092448e-16
-1.5036288e-15
1.3792654e-15
1.5036288e-15
-1.3792654e-15
-1.9724361e-15
1.8831978e-15
1.9724361e-15
-1.8831978e-15
-2.1349292e-15
2.0762873e-15
2.1349292e-15
-2.0762873e-15
-2.093758e-15
2.0594414e-15
2.093758e-15
-2.0594414e-15
-1.9277935e-15
1.9116138e-15
1.9277935e-15
-1.9116138e-15
-1.6957288e-15
1.6891044e-15
1.6957288e-15
-1.6891044e-15
-1.4369192e-15
1.4360553e-15
1.4369192e-15
-1.4360553e-15
-1.1778637e-15
1.1807896e-15
1.1778637e-15
-1.1807896e-15
-9.3660872e-16
9.4048199e-16
9.3660872e-16
-9.4048199e-16
-7.0544452e-16
7.2831187e-16
7.2406907e-16
-7.2831187e-16
-5.4361693e-16
5.4596314e-16
5.4361693e-16
-5.4596314e-16
-3.9582499e-16
4.1563238e-16
3.9582499e-16
-3.9700784e-16
-2.5862164e-16
2.7607565e-16
2.7724618e-16
-2.7607565e-16
-1.8520013e-16
2.00609e-16
1.8520013e-16
-2.00609e-16
-1.1458015e-16
1.1116839e-16
1.1458015e-16
-1.1116839e-16
-6.3567741e-17
5.8568829e-17
6.3567741e-17
-5.8568829e-17
-2.7587065e-17
2.1052182e-17
8.9625218e-18
-2.1052182e-17
-3.6995103e-18
1.4618974e-17
3.6995103e-18
4.0055691e-18
1.5130836e-17
-2.0558152e-17
-3.3755379e-17
2.0558152e-17
2.8038313e-17
-3.1939591e-17
-4.6662857e-17
3.1939591e-17
3.8821378e-17
-4.1057622e-17
-3.8821378e-17
4.1057622e-17
4.7488263e-17
-4.893764e-17
-2.8863719e-17
4.893764e-17
4.308026e-17
-4.478042e-17
-4.308026e-17
4.478042e-17
-1.3294038e-11
3.6473463e-11
1.3294038e-11
-3.6473463e-11
-1.8833643e-11
2.0255107e-10
1.8833643e-11
-3.6117053e-11
-3.7780022e-11
6.109559e-11
5.4423423e-11
-6.109559e-11
-3.7443406e-11
3.5807557e-11
3.7443406e-11
-3.5807557e-11
-3.6540427e-11
2.3667162e-11
3.6540427e-11
-2.3667162e-11
-1.4785752e-11
6.9905846e-12
3.1429154e-11
-2.3633986e-11
-1.1429109e-11
3.784695e-12
1.1429109e-11
-3.784695e-12
-8.4603484e-12
1.902809e-12
8.4603484e-12
-1.902809e-12
-5.987858e-12
8.4447571e-13
5.987858e-12
-8.4447571e-13
-4.0846541e-12
2.9419359e-13
4.0846541e-12
-2.9419359e-13
-2.7032877e-12
2.290906e-14
2.7032877e-12
-2.2910224e-14
-1.7267228e-12
-9.8848823e-14
1.7267228e-12
9.8848823e-14
-1.0525924e-12
-1.5022118e-13
1.0525924e-12
1.5022118e-13
-6.1761725e-13
-1.7264703e-13
6.1761725e-13
1.7264586e-13
-3.2825265e-13
-1.8479422e-13
3.2825381e-13
1.8479422e-13
-1.3572679e-13
-1.9388579e-13
1.3572679e-13
1.9388579e-13
-6.5624932e-17
-2.025099e-13
6.5624932e-17
2.0250757e-13
8.8510258e-14
-2.0956879e-13
-8.8510258e-14
2.0956879e-13
1.4251159e-13
-2.1354112e-13
-1.4251159e-13
2.1354112e-13
1.6898051e-13
-2.1320228e-13
-1.6898051e-13
2.1320228e-13
1.7903961e-13
-2.0789661e-13
-1.7903961e-13
2.0789661e-13
1.7834923e-13
-1.97691e-13
-1.7834923e-13
1.97691e-13
1.7009182e-13
-1.8341606e-13
-1.7009182e-13
1.8341606e-13
1.5669396e-13
-1.6600024e-13
-1.5669396e-13
1.6600024e-13
1.4016097e-13
-1.4671533e-13
-1.4016097e-13
1.4671533e-13
1.2209872e-13
-1.2666045e-13
-1.2209872e-13
1.2666045e-13
1.0375991e-13
-1.06817e-13
-1.0375991e-13
1.06817e-13
8.6083842e-14
-8.7973202e-14
-8.6083842e-14
8.7973202e-14
6.9727808e-14
-7.0719304e-14
-6.9727808e-14
7.0719304e-14
5.5103075e-14
-5.542024e-14
-5.5103075e-14
5.542024e-14
4.2415918e-14
-4.2244265e-14
-4.2415918e-14
4.2244265e-14
3.171386e-14
-3.1208911e-14
-3.171386e-14
3.1208911e-14
2.2926252e-14
-2.221839e-14
-2.2926252e-14
2.221839e-14
1.5901444e-14
-1.5082137e-14
-1.5901444e-14
1.5082137e-14
1.0439014e-14
-9.5804911e-15
-1.0439014e-14
9.5804911e-15
6.3169353e-15
-5.4730841e-15
-6.3169353e-15
5.4730841e-15
3.3080441e-15
-2.5165882e-15
-3.3080441e-15
2.5165882e-15
1.2003313e-15
-4.8280394e-16
-1.2003313e-15
4.8280394e-16
-2.004727e-16
8.3237359e-16
2.004727e-16
-8.3237359e-16
-1.0637732e-15
1.6065223e-15
1.0637732e-15
-1.6065223e-15
-1.5314577e-15
1.986126e-15
1.5314577e-15
-1.986126e-15
-1.7204938e-15
2.0920305e-15
1.7204938e-15
-2.0920305e-15
-1.7219556e-15
2.0217069e-15
1.7219556e-15
-2.0217069e-15
-1.604707e-15
1.8443662e-15
1.604707e-15
-1.8443662e-15
-1.4215071e-15
1.6102584e-15
1.4215071e-15
-1.6102584e-15
-1.2102972e-15
1.3563735e-15
1.2102972e-15
-1.3563735e-15
-9.9604587e-16
1.1075738e-15
9.9604587e-16
-1.1075738e-15
-7.9636493e-16
8.7899608e-16
7.9636493e-16
-8.7899608e-16
-6.1835997e-16
6.7638669e-16
6.1835997e-16
-6.7638669e-16
-4.6646347e-16
5.0448157e-16
4.6646347e-16
-4.8585703e-16
-3.4186515e-16
3.6381033e-16
3.4186515e-16
-3.4518578e-16
-2.4237005e-16
2.513863e-16
2.4237005e-16
-2.513863e-16
-1.642967e-16
1.6258776e-16
1.642967e-16
-1.6258776e-16
-1.0361015e-16
9.5237222e-17
1.0361015e-16
-9.5237222e-17
-5.760197e-17
2.5821352e-17
5.760197e-17
-4.4445896e-17
-2.3517029e-17
8.3537459e-18
2.3517029e-17
-8.3537459e-18
8.5126472e-19
-1.9611702e-17
-8.5126472e-19
3.8236246e-17
1.8883379e-17
-4.0505905e-17
-1.8883379e-17
4.0505905e-17
3.5293451e-17
-5.2670763e-17
-5.3917995e-17
5.2670763e-17
4.1560173e-17
-4.7456309e-17
-4.1560173e-17
4.7456309e-17
1.1213736e-11
-2.7921291e-10
-1.1213737e-11
1.127789e-10
1.7868541e-11
-7.2546341e-10
-1.8430256e-10
8.9189742e-10
3.1960617e-11
-6.0694533e-10
-3.1960617e-11
6.2358873e-10
2.700548e-11
-4.9505753e-10
-2.700548e-11
4.9505753e-10
1.26169e-11
-3.615769e-10
-1.26169e-11
3.5991256e-10
2.7992039e-12
-2.4317084e-10
-2.7992038e-12
2.5981424e-10
6.507803e-13
-1.8725861e-10
-6.507803e-13
1.7061521e-10
-5.9715663e-13
-1.0983211e-10
5.9715692e-13
1.2647551e-10
-9.9085159e-13
-7.3998948e-11
9.9085159e-13
9.064235e-11
-1.0486369e-12
-6.0751892e-11
1.7692039e-11
6.0751893e-11
-9.7289278e-13
-1.8392357e-11
9.7289278e-13
1.8392357e-11
-8.5610104e-13
-1.222089e-11
8.5610162e-13
1.222089e-11
-7.350019e-13
-8.0553379e-12
7.350019e-13
8.0553379e-12
-5.9809794e-13
-5.2594618e-12
5.9809678e-13
5.2594618e-12
-4.7037898e-13
-3.3917751e-12
4.7037781e-13
3.3917751e-12
-3.7910756e-13
-2.1512833e-12
3.7910989e-13
2.1512833e-12
-3.3051432e-13
-1.3323993e-12
3.3051548e-13
1.3324017e-12
-2.9715279e-13
-7.9588064e-13
2.9715395e-13
7.958818e-13
-2.681009e-13
-4.4814356e-13
2.6810206e-13
4.4814472e-13
-2.395908e-13
-2.265511e-13
2.395908e-13
2.265511e-13
-2.1280205e-13
-8.9065832e-14
2.1280205e-13
8.9065832e-14
-1.8723396e-13
-7.0513432e-15
1.8723396e-13
7.0513432e-15
-1.6283616e-13
3.8255664e-14
1.6283616e-13
-3.8255664e-14
-1.3931275e-13
6.0206125e-14
1.3931507e-13
-6.0203797e-14
-1.1695355e-13
6.7239677e-14
1.1695122e-13
-6.7237348e-14
-9.6207584e-14
6.5372112e-14
9.6209912e-14
-6.5372112e-14
-7.743519e-14
5.8641048e-14
7.743519e-14
-5.8641048e-14
-6.08632e-14
4.9692257e-14
6.08632e-14
-4.9687601e-14
-4.6602333e-14
4.0187126e-14
4.6602333e-14
-4.0182469e-14
-3.4638866e-14
3.1133578e-14
3.4638866e-14
-3.1133578e-14
-2.4853949e-14
2.3086515e-14
2.4853949e-14
-2.3086515e-14
-1.7058345e-14
1.6287863e-14
1.7058345e-14
-1.6287863e-14
-1.1019263e-14
1.0781804e-14
1.1019263e-14
-1.0777147e-14
-6.4819421e-15
6.5134629e-15
6.4819421e-15
-6.5134629e-15
-3.1899159e-15
3.3362717e-15
3.1945721e-15
-3.3316156e-15
-9.0276306e-16
1.0764598e-15
9.0276306e-16
-1.0764598e-15
5.9886883e-16
-4.4092448e-16
-5.9886883e-16
4.4092448e-16
1.5036288e-15
-1.3792654e-15
-1.5036288e-15
1.3792654e-15
1.9724361e-15
-1.8831978e-15
-1.9724361e-15
1.8831978e-15
2.1442414e-15
-2.0762873e-15
-2.1349292e-15
2.0762873e-15
2.1030703e-15
-2.0594414e-15
-2.093758e-15
2.0594414e-15
1.9277935e-15
-1.9116138e-15
-1.9184813e-15
1.9209261e-15
1.6957288e-15
-1.6891044e-15
-1.6957288e-15
1.6984166e-15
1.4369192e-15
-1.4360553e-15
-1.4369192e-15
1.4453675e-15
1.1871759e-15
-1.1807896e-15
-1.1778637e-15
1.1901019e-15
9.3660872e-16
-9.4048199e-16
-9.3660872e-16
9.4048199e-16
7.2406907e-16
-7.2831187e-16
-7.2406907e-16
7.2831187e-16
5.4361693e-16
-5.4596314e-16
-5.4361693e-16
5.6458768e-16
3.9582499e-16
-3.9700784e-16
-3.9582499e-16
3.9700784e-16
2.7724618e-16
-2.7607565e-16
-2.5862164e-16
2.7607565e-16
1.8520013e-16
-1.8198446e-16
-1.8520013e-16
1.8198446e-16
1.1458015e-16
-1.1116839e-16
-1.1458015e-16
1.2979293e-16
6.3567741e-17
-5.8568829e-17
-6.3567741e-17
5.8568829e-17
2.7587065e-17
-2.1052182e-17
-8.9625218e-18
3.9676726e-17
3.6995101e-18
4.0055691e-18
-3.6995101e-18
-4.0055691e-18
-1.5130836e-17
2.0558153e-17
1.5130836e-17
-2.0558153e-17
-2.8038311e-17
3.1939591e-17
4.6662855e-17
-3.1939591e-17
-3.8821378e-17
4.1057624e-17
3.8821378e-17
-2.243308e-17
-4.7488263e-17
4.893764e-17
6.6112807e-17
-4.893764e-17
-4.308026e-17
4.478042e-17
4.308026e-17
-2.6155876e-17
)
;

boundaryField
{
    movingWall
    {
        type            calculated;
        value           nonuniform List<scalar> 
16
(
-4.1560171e-17
4.308026e-17
4.1560173e-17
-4.308026e-17
6.6080853e-17
-4.478042e-17
-4.7456309e-17
4.478042e-17
4.1560171e-17
-4.308026e-17
-4.1560173e-17
4.308026e-17
-4.7456309e-17
4.478042e-17
4.7456309e-17
-2.6155876e-17
)
;
    }
    CPLReceiveMD
    {
        type            calculated;
        value           nonuniform List<scalar> 
16
(
1.3294038e-11
-1.1213736e-11
-1.3294038e-11
1.1213736e-11
-3.6473463e-11
2.7921291e-10
3.6473463e-11
-2.7921291e-10
-1.3294038e-11
1.1213736e-11
1.3294038e-11
-1.1213737e-11
3.6473463e-11
-1.127789e-10
-3.6473463e-11
1.127789e-10
)
;
    }
    streamwiseIn
    {
        type            cyclic;
    }
    streamwiseOut
    {
        type            cyclic;
    }
    front
    {
        type            cyclic;
    }
    back
    {
        type            cyclic;
    }
}


// ************************************************************************* //
