/*--------------------------------*- C++ -*----------------------------------*\
| =========                 |                                                 |
| \\      /  F ield         | OpenFOAM: The Open Source CFD Toolbox           |
|  \\    /   O peration     | Version:  3.0.x                                 |
|   \\  /    A nd           | Web:      www.OpenFOAM.org                      |
|    \\/     M anipulation  |                                                 |
\*---------------------------------------------------------------------------*/
FoamFile
{
    version     2.0;
    format      ascii;
    class       volScalarField;
    location    "375";
    object      sigmayy;
}
// * * * * * * * * * * * * * * * * * * * * * * * * * * * * * * * * * * * * * //

dimensions      [0 2 -2 0 0 0 0];

internalField   nonuniform List<scalar> 
960
(
8.0153758e-09
1.7529402e-08
-2.134326e-08
-1.9766255e-08
1.3060927e-08
1.6811717e-08
-1.3759664e-08
-1.7788123e-08
3.5587256e-08
3.3849693e-08
-3.3414147e-08
-3.4105372e-08
2.9907993e-08
2.6116029e-08
-2.7964532e-08
-2.7044804e-08
3.3188262e-08
2.8640054e-08
-3.2813227e-08
-3.0197848e-08
3.7093329e-08
3.4060049e-08
-3.6093075e-08
-3.4888082e-08
3.0787946e-08
3.0780969e-08
-2.9295549e-08
-3.0864872e-08
1.8284137e-08
2.0464482e-08
-1.6597709e-08
-1.998688e-08
3.8675784e-09
6.9093031e-09
-2.2266262e-09
-6.1042921e-09
-8.4365648e-09
-5.6486536e-09
9.9135239e-09
6.5939387e-09
-1.6698472e-08
-1.470276e-08
1.7983785e-08
1.5669984e-08
-2.0784824e-08
-1.9479997e-08
2.1898926e-08
2.0408871e-08
-2.158638e-08
-2.0933768e-08
2.2565652e-08
2.1805589e-08
-2.0200507e-08
-1.9781646e-08
2.107801e-08
2.0596845e-08
-1.7642985e-08
-1.728889e-08
1.8441248e-08
1.8052117e-08
-1.486187e-08
-1.4233819e-08
1.5592988e-08
1.4949487e-08
-1.2066565e-08
-1.1211333e-08
1.273598e-08
1.1882639e-08
-9.7618521e-09
-8.5473104e-09
1.0372349e-08
9.1751662e-09
-7.9047551e-09
-6.3392891e-09
8.4588948e-09
6.9226981e-09
-6.497888e-09
-4.7186581e-09
6.9991444e-09
5.2563596e-09
-5.5074901e-09
-3.5501524e-09
5.9604846e-09
4.0419372e-09
-4.9943817e-09
-2.8990819e-09
5.4044771e-09
3.3458505e-09
-4.7936827e-09
-2.6021766e-09
5.1663427e-09
3.005832e-09
-4.8547821e-09
-2.4979418e-09
5.1949823e-09
2.8613269e-09
-4.9117864e-09
-2.6532083e-09
5.2236178e-09
2.979669e-09
-5.1502157e-09
-3.031851e-09
5.4367167e-09
3.3248315e-09
-5.5408794e-09
-3.6055704e-09
5.8040853e-09
3.8683262e-09
-5.83886e-09
-4.1309375e-09
6.0799865e-09
4.3663487e-09
-6.1371208e-09
-4.7027942e-09
6.3567862e-09
4.9132654e-09
-6.4215664e-09
-5.4199906e-09
6.6200222e-09
5.6074223e-09
-6.6810928e-09
-6.1622444e-09
6.8584183e-09
6.3280565e-09
-6.7959769e-09
-6.921997e-09
6.9522025e-09
7.0671827e-09
-7.4250246e-09
-7.1378894e-09
7.5601951e-09
7.263083e-09
-7.4532761e-09
-8.6899892e-09
7.5674707e-09
8.795538e-09
-6.3219771e-09
-9.1310558e-09
6.4152868e-09
9.2170772e-09
-7.3571816e-09
-1.0673688e-08
7.429662e-09
1.0740116e-08
-6.1193435e-09
-1.1091717e-08
6.1709754e-09
1.1138346e-08
-5.9372168e-09
-1.1486993e-08
5.9678789e-09
1.1513518e-08
-5.7027568e-09
-1.185106e-08
5.7122203e-09
1.1857124e-08
-5.4189782e-09
-1.2174641e-08
5.4069358e-09
1.2159918e-08
-5.0904561e-09
-1.244754e-08
5.0565636e-09
1.2411747e-08
-4.7233547e-09
-1.3768125e-08
4.667295e-09
1.3711029e-08
-3.2158564e-09
-1.2795464e-08
3.1374202e-09
1.2717024e-08
-2.7963616e-09
-1.2844748e-08
2.6955063e-09
1.2745165e-08
-1.2564553e-09
-1.2791478e-08
1.1333341e-09
1.2671156e-08
-1.9367488e-09
-1.2619051e-08
1.7916831e-09
1.2478561e-08
-4.1185858e-10
-1.2308934e-08
2.4523327e-10
1.2148896e-08
1.0857692e-09
-1.1840426e-08
-1.2737206e-09
1.1661276e-08
1.4334448e-09
-1.0080934e-08
-1.6429696e-09
9.8825761e-09
6.1914525e-10
-9.2242621e-09
-8.5141547e-10
9.0056115e-09
1.961854e-09
-7.0241111e-09
-2.2195142e-09
6.7825745e-09
2.1270496e-09
-4.5622012e-09
-2.414781e-09
4.293251e-09
2.22406e-09
-1.8132099e-09
-2.5490199e-09
1.5103088e-09
2.2600638e-09
1.2388336e-09
-2.6318602e-09
-1.583438e-09
3.3610902e-09
4.5930194e-09
-3.7900709e-09
-4.9857843e-09
3.3361334e-09
9.3451546e-09
-3.8294398e-09
-9.7860465e-09
2.2100172e-09
1.3177217e-08
-2.7639637e-09
-1.3653069e-08
3.2963795e-09
1.6638522e-08
-3.9358418e-09
-1.7106718e-08
2.9237383e-09
1.7280361e-08
-3.3724504e-09
-1.7723702e-08
1.4500568e-09
1.3283222e-08
-1.5571123e-09
-1.3712759e-08
1.6242472e-08
1.4572552e-08
-1.8689905e-08
-1.7878122e-08
1.3878539e-08
1.6535863e-08
-1.4129765e-08
-1.8409475e-08
3.4466723e-08
3.6525801e-08
-3.5166171e-08
-3.6313076e-08
2.6500259e-08
2.8095951e-08
-2.8259177e-08
-2.8021808e-08
3.0575715e-08
2.9172072e-08
-3.207119e-08
-2.9846668e-08
3.474238e-08
3.3978697e-08
-3.5480255e-08
-3.4437899e-08
2.8984671e-08
3.0554066e-08
-2.9030563e-08
-3.0671279e-08
1.7073187e-08
2.0285706e-08
-1.6663251e-08
-2.0055896e-08
3.1054025e-09
6.78042e-09
-2.4700764e-09
-6.298827e-09
-8.9096467e-09
-5.7516274e-09
9.6170554e-09
6.3700342e-09
-1.6988675e-08
-1.4816409e-08
1.7694532e-08
1.5484587e-08
-2.1002573e-08
-1.9740852e-08
2.16856e-08
2.0409174e-08
-2.1649363e-08
-2.1115338e-08
2.2313136e-08
2.1759278e-08
-2.0339203e-08
-2.0090783e-08
2.0992339e-08
2.0700638e-08
-1.7747517e-08
-1.7483772e-08
1.8394151e-08
1.8059584e-08
-1.4821032e-08
-1.4410107e-08
1.5459249e-08
1.4953964e-08
-1.2104048e-08
-1.1361344e-08
1.2727372e-08
1.1873339e-08
-9.6605559e-09
-8.55705e-09
1.0260468e-08
9.0377046e-09
-7.7823707e-09
-6.5419422e-09
8.3507894e-09
6.9928431e-09
-6.4726423e-09
-4.7841315e-09
7.0034355e-09
5.2071088e-09
-5.4752391e-09
-3.7045986e-09
5.9647628e-09
4.1015836e-09
-4.9607769e-09
-2.9250093e-09
5.4077925e-09
3.2979679e-09
-4.7628316e-09
-2.6146129e-09
5.1680667e-09
2.965211e-09
-4.7181868e-09
-2.5006928e-09
5.0837708e-09
2.8300085e-09
-4.8923371e-09
-2.6496249e-09
5.2212207e-09
2.9581951e-09
-5.1367735e-09
-3.1356478e-09
5.4322359e-09
3.4235901e-09
-5.4215269e-09
-3.5969867e-09
5.6867877e-09
3.8641217e-09
-5.8341543e-09
-4.1225119e-09
6.0720986e-09
4.368506e-09
-6.1346582e-09
-4.8065707e-09
6.3476973e-09
5.0310637e-09
-6.3090794e-09
-5.4147393e-09
6.4990995e-09
5.6174467e-09
-6.6794598e-09
-6.1592816e-09
6.8478374e-09
6.3400492e-09
-6.7935465e-09
-6.9214469e-09
6.9411926e-09
7.080255e-09
-6.3118629e-09
-8.2492824e-09
6.4393002e-09
8.3862103e-09
-7.4483804e-09
-8.6940822e-09
7.5558452e-09
8.8092628e-09
-6.3158627e-09
-9.1372439e-09
6.4033561e-09
9.2307999e-09
-7.3500504e-09
-9.5722355e-09
7.4173873e-09
9.6442169e-09
-6.111436e-09
-1.1101575e-08
6.1583158e-09
1.1151927e-08
-5.9287571e-09
-1.0388887e-08
5.954816e-09
1.0417428e-08
-5.6939152e-09
-1.1863967e-08
5.6987731e-09
1.1870411e-08
-5.4098573e-09
-1.2188866e-08
5.3931672e-09
1.217291e-08
-5.0810822e-09
-1.2462936e-08
5.0425853e-09
1.2424274e-08
-4.7136867e-09
-1.3784512e-08
4.6532678e-09
1.3722863e-08
-3.2058128e-09
-1.2812622e-08
3.1235552e-09
1.2727911e-08
-2.7858414e-09
-1.2862411e-08
2.6820615e-09
1.2754838e-08
-1.2453793e-09
-1.280933e-08
1.1206158e-09
1.2679345e-08
-8.1555457e-10
-1.2636732e-08
6.7049318e-10
1.248501e-08
-3.9978423e-10
-1.1216506e-08
2.350969e-10
1.104383e-08
1.0979914e-09
-1.1856645e-08
-1.2819232e-09
1.1663674e-08
3.3570851e-10
-1.0095954e-08
-5.3922997e-10
9.8828644e-09
1.7392741e-09
-8.1283964e-09
-1.9640195e-09
7.8944086e-09
1.9699709e-09
-7.036636e-09
-2.2195146e-09
6.7794601e-09
3.2407915e-09
-5.683734e-09
-3.5212417e-09
5.3990416e-09
2.2227492e-09
-1.8259593e-09
-2.5429498e-09
1.5071109e-09
3.3616221e-09
1.1330441e-10
-3.732319e-09
-4.7478341e-10
2.2366685e-09
4.5699188e-09
-2.6673128e-09
-4.9822645e-09
3.3158311e-09
8.2001251e-09
-3.8081493e-09
-8.66689e-09
3.2971814e-09
1.201756e-08
-3.8366601e-09
-1.253311e-08
3.2728115e-09
1.6535692e-08
-3.8219483e-09
-1.7066149e-08
2.9207419e-09
1.6226314e-08
-3.2936005e-09
-1.6652734e-08
1.4816559e-09
1.3635769e-08
-1.6242931e-09
-1.3893397e-08
1.9613455e-08
1.6426357e-08
-2.185032e-08
-2.0550244e-08
1.2177335e-08
1.6469464e-08
-1.2961511e-08
-1.8130937e-08
3.1313783e-08
3.447296e-08
-3.2515569e-08
-3.3723542e-08
2.5255142e-08
2.6512108e-08
-2.7598298e-08
-2.6609773e-08
3.0790853e-08
2.8852692e-08
-3.2779234e-08
-2.9876211e-08
3.5122706e-08
3.4065637e-08
-3.6239739e-08
-3.4790339e-08
2.9179495e-08
3.0632199e-08
-2.9518899e-08
-3.0936209e-08
1.7029767e-08
2.0235092e-08
-1.685292e-08
-2.015671e-08
2.9131743e-09
6.6649785e-09
-2.4604271e-09
-6.3166977e-09
-9.1539247e-09
-5.8645889e-09
9.7194803e-09
6.3664687e-09
-1.7195126e-08
-1.4902878e-08
1.7790258e-08
1.5471905e-08
-2.1146998e-08
-1.9648553e-08
2.1745129e-08
2.0239444e-08
-2.1847827e-08
-2.1070693e-08
2.2445823e-08
2.1667302e-08
-2.0387671e-08
-1.9888317e-08
2.098626e-08
2.048779e-08
-1.7776128e-08
-1.7369045e-08
1.8372072e-08
1.7968111e-08
-1.4956058e-08
-1.4293143e-08
1.5541485e-08
1.4886295e-08
-1.2132807e-08
-1.1254896e-08
1.2698062e-08
1.1836584e-08
-9.8081567e-09
-8.5789922e-09
1.0344734e-08
9.1421909e-09
-7.9368955e-09
-6.3620323e-09
8.4390122e-09
6.8990991e-09
-6.5199764e-09
-4.7347476e-09
6.9850207e-09
5.2395281e-09
-5.5224687e-09
-3.5614859e-09
5.9506117e-09
4.0299288e-09
-5.0043549e-09
-2.9071042e-09
5.3977133e-09
3.337239e-09
-4.8001492e-09
-2.6078857e-09
5.1618306e-09
2.9996049e-09
-4.8588205e-09
-2.5020395e-09
5.1920769e-09
2.8567573e-09
-4.9141633e-09
-2.6561775e-09
5.221841e-09
2.9762549e-09
-5.151472e-09
-3.0340305e-09
5.4357175e-09
3.3222326e-09
-5.5414053e-09
-3.6071931e-09
5.8036052e-09
3.8663137e-09
-5.8389316e-09
-4.132163e-09
6.0798395e-09
4.3647698e-09
-6.1369283e-09
-4.7037281e-09
6.3568409e-09
4.9120161e-09
-6.4212387e-09
-5.4207064e-09
6.6201875e-09
5.6064309e-09
-6.6807147e-09
-6.1627951e-09
6.8586332e-09
6.3272731e-09
-6.7956011e-09
-6.9224193e-09
6.9524279e-09
7.0665687e-09
-7.4246811e-09
-7.1382095e-09
7.5604077e-09
7.2626076e-09
-7.4529804e-09
-8.6902272e-09
7.5676579e-09
8.7951761e-09
-6.321735e-09
-9.1312317e-09
6.415443e-09
9.2168083e-09
-7.3569913e-09
-1.0673814e-08
7.4297873e-09
1.073992e-08
-6.1191999e-09
-1.1091804e-08
6.1710715e-09
1.1138209e-08
-5.9371139e-09
-1.1487052e-08
5.9679493e-09
1.1513427e-08
-5.7026856e-09
-1.1851096e-08
5.7122694e-09
1.1857067e-08
-5.4189331e-09
-1.2174661e-08
5.4069671e-09
1.2159886e-08
-5.0904312e-09
-1.2447549e-08
5.0565826e-09
1.2411733e-08
-4.7233427e-09
-1.3768126e-08
4.6673051e-09
1.3711027e-08
-3.2158548e-09
-1.279546e-08
3.1374237e-09
1.271703e-08
-2.7963665e-09
-1.2844742e-08
2.6955061e-09
1.2745175e-08
-1.2564632e-09
-1.2791472e-08
1.1333302e-09
1.2671167e-08
-1.9367579e-09
-1.2619043e-08
1.7916783e-09
1.2478573e-08
-4.1186891e-10
-1.2308926e-08
2.4522751e-10
1.2148909e-08
1.0857601e-09
-1.1840419e-08
-1.2737274e-09
1.1661287e-08
1.4334366e-09
-1.0080928e-08
-1.642974e-09
9.882585e-09
6.1913793e-10
-9.2242574e-09
-8.5141943e-10
9.0056187e-09
1.9618474e-09
-7.0241068e-09
-2.2195186e-09
6.7825802e-09
2.127044e-09
-4.5621989e-09
-2.4147833e-09
4.2932562e-09
2.2240569e-09
-1.8132078e-09
-2.5490215e-09
1.5103128e-09
2.2600611e-09
1.2388354e-09
-2.6318623e-09
-1.5834361e-09
3.3610882e-09
4.5930203e-09
-3.7900723e-09
-4.9857825e-09
3.3361319e-09
9.3451555e-09
-3.8294407e-09
-9.7860449e-09
2.2100163e-09
1.3177217e-08
-2.7639643e-09
-1.3653068e-08
3.296379e-09
1.6638523e-08
-3.9358423e-09
-1.7106718e-08
2.923738e-09
1.7280361e-08
-3.3724506e-09
-1.7723701e-08
1.4500566e-09
1.3283222e-08
-1.5571124e-09
-1.3712759e-08
1.6370644e-08
1.438343e-08
-1.8672765e-08
-1.7799356e-08
1.3970235e-08
1.6448971e-08
-1.4056083e-08
-1.8479515e-08
3.443746e-08
3.652839e-08
-3.517383e-08
-3.6395758e-08
2.6323281e-08
2.8155252e-08
-2.8246085e-08
-2.8034504e-08
3.0413275e-08
2.9259224e-08
-3.2008554e-08
-2.9746798e-08
3.4650256e-08
3.4089086e-08
-3.538152e-08
-3.4274232e-08
2.8969061e-08
3.0666926e-08
-2.8925047e-08
-3.0500353e-08
1.7099645e-08
2.0379655e-08
-1.6558907e-08
-1.9898907e-08
3.1517108e-09
6.8504356e-09
-2.3771397e-09
-6.1677171e-09
-8.8584072e-09
-5.7033936e-09
9.6945885e-09
6.4714954e-09
-1.6941206e-08
-1.4784403e-08
1.7755693e-08
1.5558115e-08
-2.0962822e-08
-1.9721402e-08
2.1731806e-08
2.0459465e-08
-2.1618336e-08
-2.110494e-08
2.2346681e-08
2.1791944e-08
-2.0316497e-08
-2.0085547e-08
2.1015693e-08
2.0720699e-08
-1.7731847e-08
-1.7481581e-08
1.8409686e-08
1.8070972e-08
-1.4810867e-08
-1.4409902e-08
1.5469015e-08
1.4959942e-08
-1.2097949e-08
-1.136214e-08
1.273307e-08
1.1876442e-08
-9.6572858e-09
-8.5583622e-09
1.0263432e-08
9.0391771e-09
-7.7809212e-09
-6.5434142e-09
8.352019e-09
6.9932191e-09
-6.4722446e-09
-4.7854532e-09
7.0036645e-09
5.2068301e-09
-5.4753451e-09
-3.7057329e-09
5.9644953e-09
4.1009265e-09
-4.961029e-09
-2.9260667e-09
5.4073524e-09
3.2970857e-09
-4.7630179e-09
-2.6156218e-09
5.1676486e-09
2.9641907e-09
-4.7181992e-09
-2.5016513e-09
5.0834753e-09
2.8289052e-09
-4.8921461e-09
-2.6505308e-09
5.2210864e-09
2.9570511e-09
-5.1363968e-09
-3.1364982e-09
5.4322616e-09
3.422444e-09
-5.4210023e-09
-3.5977753e-09
5.6869477e-09
3.8630045e-09
-5.8335321e-09
-4.1232344e-09
6.0723575e-09
4.3674465e-09
-6.1339891e-09
-4.8072236e-09
6.3480181e-09
5.0300857e-09
-6.3084077e-09
-5.4153168e-09
6.4994488e-09
5.616563e-09
-6.6788197e-09
-6.1597818e-09
6.8481878e-09
6.3392704e-09
-6.7929622e-09
-6.9218738e-09
6.9415243e-09
7.0795841e-09
-6.3113494e-09
-8.249638e-09
6.4395998e-09
8.3856456e-09
-7.4479436e-09
-8.694372e-09
7.5561052e-09
8.8087993e-09
-6.3155026e-09
-9.1374767e-09
6.4035739e-09
9.2304274e-09
-7.3497625e-09
-9.5724171e-09
7.4175634e-09
9.6439242e-09
-6.1112131e-09
-1.1101713e-08
6.1584538e-09
1.1151703e-08
-5.92859e-09
-1.0388989e-08
5.954921e-09
1.0417262e-08
-5.6937959e-09
-1.186404e-08
5.6988496e-09
1.1870293e-08
-5.4097751e-09
-1.2188916e-08
5.3932203e-09
1.2172829e-08
-5.0810295e-09
-1.2462969e-08
5.0426203e-09
1.2424221e-08
-4.7136573e-09
-1.3784532e-08
4.6532878e-09
1.3722831e-08
-3.2057982e-09
-1.2812632e-08
3.1235646e-09
1.2727895e-08
-2.7858381e-09
-1.2862415e-08
2.6820644e-09
1.2754833e-08
-1.2453843e-09
-1.280933e-08
1.1206142e-09
1.2679346e-08
-8.155632e-10
-1.263673e-08
6.7048815e-10
1.2485016e-08
-3.9979383e-10
-1.1216502e-08
2.3509024e-10
1.1043839e-08
1.0979798e-09
-1.1856641e-08
-1.2819298e-09
1.1663683e-08
3.3569746e-10
-1.0095948e-08
-5.3923659e-10
9.8828726e-09
1.7392633e-09
-8.1283922e-09
-1.9640254e-09
7.8944166e-09
1.969962e-09
-7.0366331e-09
-2.2195199e-09
6.7794675e-09
3.2407849e-09
-5.6837297e-09
-3.5212465e-09
5.3990465e-09
2.2227429e-09
-1.8259562e-09
-2.5429536e-09
1.5071154e-09
3.3616175e-09
1.1330644e-10
-3.7323218e-09
-4.7477934e-10
2.236665e-09
4.5699207e-09
-2.6673151e-09
-4.9822615e-09
3.3158285e-09
8.200126e-09
-3.8081511e-09
-8.6668881e-09
3.2971796e-09
1.2017561e-08
-3.8366614e-09
-1.2533109e-08
3.2728102e-09
1.6535693e-08
-3.8219492e-09
-1.7066148e-08
2.9207408e-09
1.6226314e-08
-3.2936012e-09
-1.6652733e-08
1.4816546e-09
1.3635769e-08
-1.6242939e-09
-1.3893396e-08
)
;

boundaryField
{
    movingWall
    {
        type            calculated;
        value           nonuniform List<scalar> 
16
(
1.4396772e-09
1.4840768e-09
1.4396771e-09
1.4840754e-09
1.2938691e-08
1.3384194e-08
1.293869e-08
1.3384194e-08
-1.4539462e-09
-1.5650684e-09
-1.4539462e-09
-1.5650691e-09
-1.3359483e-08
-1.3570341e-08
-1.3359484e-08
-1.357034e-08
)
;
    }
    CPLReceiveMD
    {
        type            calculated;
        value           nonuniform List<scalar> 
16
(
-5.8946072e-10
1.5700433e-08
2.0953421e-08
1.5712727e-08
1.7055509e-08
1.3765115e-08
1.5946787e-08
1.3561922e-08
-2.3604515e-08
-1.9829246e-08
-2.4521115e-08
-1.9779545e-08
-1.9961784e-08
-1.7087598e-08
-2.0449296e-08
-1.69305e-08
)
;
    }
    streamwiseIn
    {
        type            cyclic;
    }
    streamwiseOut
    {
        type            cyclic;
    }
    front
    {
        type            cyclic;
    }
    back
    {
        type            cyclic;
    }
}


// ************************************************************************* //
