/*--------------------------------*- C++ -*----------------------------------*\
| =========                 |                                                 |
| \\      /  F ield         | OpenFOAM: The Open Source CFD Toolbox           |
|  \\    /   O peration     | Version:  3.0.x                                 |
|   \\  /    A nd           | Web:      www.OpenFOAM.org                      |
|    \\/     M anipulation  |                                                 |
\*---------------------------------------------------------------------------*/
FoamFile
{
    version     2.0;
    format      ascii;
    class       volScalarField;
    location    "375";
    object      sigmayz;
}
// * * * * * * * * * * * * * * * * * * * * * * * * * * * * * * * * * * * * * //

dimensions      [0 2 -2 0 0 0 0];

internalField   nonuniform List<scalar> 
960
(
1.4352338e-11
-3.0347018e-10
-2.7089535e-10
-4.4631673e-10
-6.8419617e-11
9.6972871e-11
2.5032818e-12
3.7269564e-11
-9.3479191e-11
1.0336135e-10
4.0171479e-11
8.6516638e-11
-5.488919e-11
1.012208e-10
7.1026021e-11
1.2351419e-10
-1.0330162e-11
9.2359571e-11
8.6478559e-11
1.3966273e-10
2.1666298e-11
7.6388798e-11
8.6970899e-11
1.3016954e-10
3.7598803e-11
5.8418671e-11
7.7934327e-11
1.0853326e-10
4.1454194e-11
4.1408836e-11
6.4774008e-11
8.4569141e-11
3.8284859e-11
2.7466282e-11
5.1052729e-11
6.21933e-11
3.1806901e-11
1.7397001e-11
3.8332224e-11
4.3470101e-11
2.4425285e-11
1.0313243e-11
2.7548223e-11
2.9031947e-11
1.7549818e-11
5.5223298e-12
1.8925758e-11
1.8626458e-11
1.1746261e-11
2.6975116e-12
1.2332548e-11
1.1501845e-11
7.2453428e-12
1.0812849e-12
7.5198541e-12
6.8309722e-12
3.9953747e-12
8.4718473e-14
4.1637145e-12
3.9095953e-12
1.8087959e-12
-4.1520976e-13
1.9488318e-12
2.1895521e-12
4.655081e-13
-6.5086255e-13
5.8965965e-13
1.1289454e-12
-2.472513e-13
-7.3873993e-13
-1.6002997e-13
3.9278733e-13
-5.2173442e-13
-7.3591602e-13
-4.9316802e-13
-9.7515625e-14
-5.1740238e-13
-7.1603367e-13
-5.6243768e-13
-4.2644095e-13
-3.5843661e-13
-7.2505455e-13
-4.8140729e-13
-6.5109284e-13
-1.3434555e-13
-7.3070081e-13
-3.2836126e-13
-8.0199346e-13
9.5742279e-14
-7.2232919e-13
-1.5551386e-13
-8.9448098e-13
2.959256e-13
-7.0004101e-13
4.8153268e-15
-9.3815483e-13
4.473921e-13
-6.6525099e-13
1.3562295e-13
-9.4034966e-13
5.4625086e-13
-6.1914502e-13
2.2996837e-13
-9.0856677e-13
5.9495764e-13
-5.6423589e-13
2.8827463e-13
-8.5062716e-13
6.0108254e-13
-5.0350308e-13
3.1494512e-13
-7.7370398e-13
5.7433981e-13
-4.3965225e-13
3.1631672e-13
-6.8576068e-13
5.2493133e-13
-3.7562253e-13
2.9923559e-13
-5.9285768e-13
4.6202449e-13
-3.1431466e-13
2.7011738e-13
-5.0017144e-13
3.930978e-13
-2.5735323e-13
2.3438583e-13
-4.1225627e-13
3.241233e-13
-2.0588645e-13
1.9629837e-13
-3.3155013e-13
2.591914e-13
-1.6111494e-13
1.5902444e-13
-2.6026791e-13
2.0078841e-13
-1.2282412e-13
1.2464133e-13
-1.9897365e-13
1.5033268e-13
-9.0934717e-14
9.4355291e-14
-1.4769421e-13
1.0824823e-13
-6.5234442e-14
6.8788434e-14
-1.0584465e-13
7.4288093e-14
-4.4882371e-14
4.7832799e-14
-7.27531e-14
4.7692097e-14
-2.9268707e-14
3.1245334e-14
-4.7257893e-14
2.786337e-14
-1.7622573e-14
1.8624549e-14
-2.8200521e-14
1.3107547e-14
-9.2503087e-15
9.3500324e-15
-1.4452877e-14
3.2541673e-15
-3.4544162e-15
2.7800956e-15
-4.9593606e-15
-3.3472223e-15
3.3850388e-16
-1.3657618e-15
1.2973062e-15
-7.2984981e-15
2.648761e-15
-4.0013228e-15
5.0061298e-15
-9.28431e-15
3.7538992e-15
-5.3505015e-15
6.9834556e-15
-9.7580156e-15
4.3179532e-15
-5.9323361e-15
7.8371714e-15
-9.6164877e-15
4.3056815e-15
-5.724806e-15
7.612713e-15
-8.8748426e-15
3.9770757e-15
-5.3329014e-15
6.9738293e-15
-7.6614938e-15
3.566297e-15
-4.6773258e-15
6.0405499e-15
-6.5625223e-15
2.794747e-15
-3.99059e-15
5.2234895e-15
-5.1416074e-15
2.5232849e-15
-3.3050281e-15
4.0783362e-15
-4.2723673e-15
1.9386388e-15
-2.6416449e-15
3.3090558e-15
-3.2686792e-15
1.3841505e-15
-2.0165519e-15
2.6005556e-15
-2.4678904e-15
1.0300227e-15
-1.5330289e-15
1.9527431e-15
-1.8256028e-15
7.1351969e-16
-1.1312941e-15
1.3642375e-15
-1.324494e-15
4.3208145e-16
-8.0398681e-16
9.969213e-16
-9.3733412e-16
3.453275e-16
-5.4371365e-16
6.8002765e-16
-6.3977681e-16
1.0487232e-16
-3.5879122e-16
5.7442425e-16
-3.4610546e-16
2.6106337e-17
-2.3530575e-16
2.3260306e-16
4.4803317e-16
-3.1645151e-16
8.8958449e-17
-5.715151e-16
-1.8164545e-09
-1.7958642e-10
-8.9671334e-10
-3.6235815e-11
3.3707011e-10
-6.2269512e-10
-1.9138383e-10
-5.7970149e-10
1.8741956e-09
-2.2709977e-10
1.1451879e-10
-2.8000155e-10
1.3807006e-09
-1.025182e-11
2.4262159e-10
-8.2414819e-11
1.2294983e-09
1.245474e-10
2.8177692e-10
6.5173316e-11
9.9641679e-10
1.8752035e-10
2.7269389e-10
1.4566641e-10
7.6559071e-10
2.037404e-10
2.4209203e-10
1.769066e-10
5.7191814e-10
1.9151378e-10
2.0265126e-10
1.7851902e-10
4.2166457e-10
1.6668273e-10
1.6368134e-10
1.6309271e-10
3.080823e-10
1.3956577e-10
1.3021148e-10
1.396888e-10
2.232368e-10
1.1264881e-10
1.0176605e-10
1.1415701e-10
1.6052978e-10
8.8173508e-11
7.823083e-11
9.0044951e-11
1.1465459e-10
6.7026939e-11
5.9275944e-11
6.9061747e-11
8.1415113e-11
4.9699562e-11
4.4335713e-11
5.1790097e-11
5.7490757e-11
3.6376055e-11
3.2785235e-11
3.8106743e-11
4.0344205e-11
2.6404375e-11
2.397919e-11
2.7508993e-11
2.8100634e-11
1.8998971e-11
1.7333747e-11
1.9645759e-11
1.9384861e-11
1.3562241e-11
1.2364593e-11
1.4054915e-11
1.3193537e-11
9.6228853e-12
8.6773058e-12
1.0078174e-11
8.8123063e-12
6.8340765e-12
5.9669575e-12
7.2718962e-12
5.7333165e-12
4.8931923e-12
3.9964414e-12
5.3083474e-12
3.5882838e-12
3.5354894e-12
2.5827074e-12
3.9318356e-12
2.1154353e-12
2.5850788e-12
1.5857246e-12
2.9656455e-12
1.1245329e-12
1.9138624e-12
8.9783253e-13
2.2781929e-12
4.7524855e-13
1.435984e-12
4.3640629e-13
1.7784739e-12
6.9496788e-14
1.0908358e-12
1.3925399e-13
1.4047783e-12
-1.6671998e-13
8.3624632e-13
-4.1299435e-14
1.1171566e-12
-2.8805566e-13
6.4430078e-13
-1.4097445e-13
8.8915648e-13
-3.3397867e-13
4.9630738e-13
-1.8633194e-13
7.0489927e-13
-3.3264368e-13
3.8092333e-13
-1.9672499e-13
5.5361111e-13
-3.0397653e-13
2.8952553e-13
-1.860704e-13
4.2919616e-13
-2.6173709e-13
2.1713088e-13
-1.6405743e-13
3.2695709e-13
-2.148034e-13
1.5958545e-13
-1.3723121e-13
2.4383217e-13
-1.6885452e-13
1.147418e-13
-1.0976487e-13
1.7693575e-13
-1.2733361e-13
7.9924302e-14
-8.4187005e-14
1.2420101e-13
-9.1842557e-14
5.3183422e-14
-6.1873683e-14
8.336472e-14
-6.2771042e-14
3.3388276e-14
-4.318924e-14
5.2424788e-14
-3.9929941e-14
1.8818553e-14
-2.8431015e-14
2.9728594e-14
-2.2793426e-14
8.5961901e-15
-1.703148e-14
1.3631304e-14
-1.0135091e-14
1.7279962e-15
-8.7699322e-15
2.6904568e-15
-1.7446622e-15
-2.6470385e-15
-3.0639054e-15
-4.2845834e-15
3.7972756e-15
-5.1535549e-15
8.296862e-16
-8.3309017e-15
7.0262121e-15
-6.3777308e-15
3.1417484e-15
-1.0256401e-14
8.421128e-15
-6.6421995e-15
4.4066713e-15
-1.0694557e-14
8.7477688e-15
-6.5137188e-15
4.9503108e-15
-1.0329976e-14
8.3687885e-15
-5.8845317e-15
4.7423553e-15
-9.516191e-15
7.6110099e-15
-5.0061053e-15
4.5474547e-15
-8.0636004e-15
6.4192187e-15
-4.2695519e-15
3.7729656e-15
-6.7372274e-15
5.5349824e-15
-3.3766621e-15
3.1324611e-15
-5.4323592e-15
4.3441848e-15
-2.6834309e-15
2.6586939e-15
-4.3514663e-15
3.5334064e-15
-2.034478e-15
2.0468014e-15
-3.3457546e-15
2.4584747e-15
-1.4370711e-15
1.4693974e-15
-2.5855056e-15
1.9038493e-15
-1.2265274e-15
1.2632851e-15
-1.7381937e-15
1.3630515e-15
-7.3059365e-16
8.6507382e-16
-1.3010489e-15
9.4964229e-16
-6.0105263e-16
6.1807755e-16
-9.3701274e-16
6.2748879e-16
-3.374011e-16
4.0012874e-16
-6.2978675e-16
4.0549687e-16
-2.6718255e-16
2.5757106e-16
-3.6119853e-16
2.5516714e-16
-3.3903465e-17
1.3778013e-16
-2.7752466e-16
1.0579823e-16
8.2994867e-17
5.7737492e-17
1.616328e-17
-6.6557749e-16
3.0289798e-16
-3.0197883e-16
6.45676e-16
-1.4352338e-11
3.0347018e-10
2.7089535e-10
4.4631673e-10
6.8419617e-11
-9.6972871e-11
-2.5032818e-12
-3.7269564e-11
9.3479191e-11
-1.0336135e-10
-4.0171479e-11
-8.6516644e-11
5.488919e-11
-1.012208e-10
-7.1026021e-11
-1.2351419e-10
1.0330162e-11
-9.2359571e-11
-8.6478559e-11
-1.3966272e-10
-2.1666298e-11
-7.6388798e-11
-8.6970899e-11
-1.3016954e-10
-3.7598803e-11
-5.8418671e-11
-7.7934327e-11
-1.0853326e-10
-4.1454194e-11
-4.1408836e-11
-6.4774008e-11
-8.4569141e-11
-3.8284859e-11
-2.7466282e-11
-5.1052729e-11
-6.21933e-11
-3.1806901e-11
-1.7397001e-11
-3.8332224e-11
-4.3470101e-11
-2.4425285e-11
-1.0313243e-11
-2.7548223e-11
-2.9031947e-11
-1.7549818e-11
-5.5223298e-12
-1.8925758e-11
-1.8626458e-11
-1.1746261e-11
-2.6975117e-12
-1.2332548e-11
-1.1501845e-11
-7.2453428e-12
-1.0812849e-12
-7.5198541e-12
-6.8309722e-12
-3.9953746e-12
-8.4718473e-14
-4.1637145e-12
-3.9095953e-12
-1.8087959e-12
4.1520976e-13
-1.9488318e-12
-2.1895521e-12
-4.6550817e-13
6.5086255e-13
-5.8965966e-13
-1.1289454e-12
2.472513e-13
7.3873993e-13
1.6002998e-13
-3.9278733e-13
5.2173442e-13
7.3591602e-13
4.9316802e-13
9.7515625e-14
5.1740238e-13
7.1603367e-13
5.6243767e-13
4.2644095e-13
3.5843661e-13
7.2505455e-13
4.8140729e-13
6.5109284e-13
1.3434555e-13
7.3070081e-13
3.2836126e-13
8.0199346e-13
-9.5742279e-14
7.2232919e-13
1.5551386e-13
8.9448098e-13
-2.959256e-13
7.0004101e-13
-4.8153268e-15
9.3815483e-13
-4.473921e-13
6.6525099e-13
-1.3562295e-13
9.4034966e-13
-5.4625086e-13
6.1914502e-13
-2.2996837e-13
9.0856677e-13
-5.9495764e-13
5.6423589e-13
-2.8827463e-13
8.5062716e-13
-6.0108254e-13
5.0350308e-13
-3.1494512e-13
7.7370398e-13
-5.7433981e-13
4.3965225e-13
-3.1631672e-13
6.8576068e-13
-5.2493133e-13
3.7562253e-13
-2.9923559e-13
5.9285768e-13
-4.6202449e-13
3.1431466e-13
-2.7011738e-13
5.0017144e-13
-3.930978e-13
2.5735323e-13
-2.3438583e-13
4.1225627e-13
-3.241233e-13
2.0588645e-13
-1.9629837e-13
3.3155013e-13
-2.591914e-13
1.6111494e-13
-1.5902444e-13
2.6026791e-13
-2.0078841e-13
1.2282412e-13
-1.2464133e-13
1.9897365e-13
-1.5033268e-13
9.0934717e-14
-9.4355291e-14
1.4769421e-13
-1.0824823e-13
6.5234441e-14
-6.8788434e-14
1.0584465e-13
-7.4288093e-14
4.4882371e-14
-4.7832799e-14
7.27531e-14
-4.7692097e-14
2.9268708e-14
-3.1245334e-14
4.7257893e-14
-2.786337e-14
1.7622573e-14
-1.8624549e-14
2.8200521e-14
-1.3107547e-14
9.2503087e-15
-9.3500324e-15
1.4452877e-14
-3.2541673e-15
3.4544162e-15
-2.7800962e-15
4.9593606e-15
3.3472223e-15
-3.3850388e-16
1.3657618e-15
-1.2973062e-15
7.2984981e-15
-2.648761e-15
4.0013235e-15
-5.0061298e-15
9.28431e-15
-3.7538992e-15
5.3505015e-15
-6.9834556e-15
9.7580156e-15
-4.3179532e-15
5.9323361e-15
-7.8371714e-15
9.6164877e-15
-4.3056815e-15
5.724806e-15
-7.612713e-15
8.8748426e-15
-3.9770757e-15
5.3329014e-15
-6.9738293e-15
7.6614938e-15
-3.566297e-15
4.6773258e-15
-6.0405499e-15
6.5625223e-15
-2.794747e-15
3.99059e-15
-5.2234895e-15
5.1416074e-15
-2.5232849e-15
3.3050281e-15
-4.0783362e-15
4.2723673e-15
-1.9386388e-15
2.6416449e-15
-3.3090558e-15
3.2686792e-15
-1.3841505e-15
2.0165519e-15
-2.6005556e-15
2.4678904e-15
-1.0300227e-15
1.5330289e-15
-1.9527431e-15
1.8256028e-15
-7.1351969e-16
1.1312941e-15
-1.3642375e-15
1.324494e-15
-4.3208145e-16
8.039868e-16
-9.9692129e-16
9.3733412e-16
-3.4532751e-16
5.4371365e-16
-6.8002765e-16
6.397768e-16
-1.0487232e-16
3.5879122e-16
-5.7442425e-16
3.4610545e-16
-2.6106329e-17
2.3530574e-16
-2.3260306e-16
-4.4803317e-16
3.164515e-16
-8.895845e-17
5.715151e-16
1.8164545e-09
1.7958642e-10
8.9671334e-10
3.6235815e-11
-3.3707011e-10
6.2269512e-10
1.9138383e-10
5.7970149e-10
-1.8741956e-09
2.2709977e-10
-1.1451879e-10
2.8000155e-10
-1.3807006e-09
1.025182e-11
-2.4262159e-10
8.2414819e-11
-1.2294983e-09
-1.245474e-10
-2.8177692e-10
-6.5173316e-11
-9.9641679e-10
-1.8752035e-10
-2.7269389e-10
-1.4566641e-10
-7.6559071e-10
-2.037404e-10
-2.4209203e-10
-1.769066e-10
-5.7191814e-10
-1.9151378e-10
-2.0265126e-10
-1.7851902e-10
-4.2166457e-10
-1.6668273e-10
-1.6368134e-10
-1.6309271e-10
-3.080823e-10
-1.3956577e-10
-1.3021148e-10
-1.396888e-10
-2.232368e-10
-1.1264881e-10
-1.0176605e-10
-1.1415701e-10
-1.6052978e-10
-8.8173508e-11
-7.823083e-11
-9.0044951e-11
-1.1465459e-10
-6.7026939e-11
-5.9275944e-11
-6.9061747e-11
-8.1415113e-11
-4.9699562e-11
-4.4335713e-11
-5.1790097e-11
-5.7490757e-11
-3.6376055e-11
-3.2785235e-11
-3.8106743e-11
-4.0344205e-11
-2.6404375e-11
-2.397919e-11
-2.7508993e-11
-2.8100634e-11
-1.8998971e-11
-1.7333747e-11
-1.9645759e-11
-1.9384861e-11
-1.3562241e-11
-1.2364593e-11
-1.4054915e-11
-1.3193537e-11
-9.6228853e-12
-8.6773058e-12
-1.0078174e-11
-8.8123063e-12
-6.8340765e-12
-5.9669575e-12
-7.2718962e-12
-5.7333165e-12
-4.8931923e-12
-3.9964414e-12
-5.3083474e-12
-3.5882838e-12
-3.5354894e-12
-2.5827074e-12
-3.9318356e-12
-2.1154353e-12
-2.5850788e-12
-1.5857246e-12
-2.9656455e-12
-1.1245329e-12
-1.9138624e-12
-8.9783253e-13
-2.2781929e-12
-4.7524855e-13
-1.435984e-12
-4.3640629e-13
-1.7784739e-12
-6.9496788e-14
-1.0908358e-12
-1.3925399e-13
-1.4047783e-12
1.6671998e-13
-8.3624632e-13
4.1299435e-14
-1.1171566e-12
2.8805566e-13
-6.4430078e-13
1.4097445e-13
-8.8915648e-13
3.3397867e-13
-4.9630738e-13
1.8633194e-13
-7.0489927e-13
3.3264368e-13
-3.8092333e-13
1.9672499e-13
-5.5361111e-13
3.0397653e-13
-2.8952553e-13
1.860704e-13
-4.2919616e-13
2.6173709e-13
-2.1713088e-13
1.6405743e-13
-3.2695709e-13
2.148034e-13
-1.5958545e-13
1.3723121e-13
-2.4383217e-13
1.6885452e-13
-1.147418e-13
1.0976487e-13
-1.7693575e-13
1.2733361e-13
-7.9924302e-14
8.4187005e-14
-1.2420101e-13
9.1842557e-14
-5.3183422e-14
6.1873683e-14
-8.336472e-14
6.2771042e-14
-3.3388276e-14
4.318924e-14
-5.2424788e-14
3.9929941e-14
-1.8818553e-14
2.8431015e-14
-2.9728594e-14
2.2793426e-14
-8.5961901e-15
1.703148e-14
-1.3631304e-14
1.0135091e-14
-1.7279962e-15
8.7699323e-15
-2.6904568e-15
1.7446622e-15
2.6470385e-15
3.0639054e-15
4.2845834e-15
-3.7972756e-15
5.1535549e-15
-8.296862e-16
8.3309017e-15
-7.0262121e-15
6.3777308e-15
-3.1417484e-15
1.0256401e-14
-8.421128e-15
6.6421995e-15
-4.4066713e-15
1.0694557e-14
-8.7477688e-15
6.5137188e-15
-4.9503108e-15
1.0329976e-14
-8.3687885e-15
5.8845317e-15
-4.7423553e-15
9.516191e-15
-7.6110099e-15
5.0061053e-15
-4.5474547e-15
8.0636004e-15
-6.4192187e-15
4.2695519e-15
-3.7729656e-15
6.7372274e-15
-5.5349824e-15
3.3766621e-15
-3.1324611e-15
5.4323592e-15
-4.3441848e-15
2.6834309e-15
-2.6586939e-15
4.3514663e-15
-3.5334064e-15
2.034478e-15
-2.0468014e-15
3.3457546e-15
-2.4584747e-15
1.4370711e-15
-1.4693974e-15
2.5855056e-15
-1.9038493e-15
1.2265274e-15
-1.2632851e-15
1.7381937e-15
-1.3630515e-15
7.3059365e-16
-8.6507382e-16
1.3010489e-15
-9.4964229e-16
6.0105263e-16
-6.1807755e-16
9.3701274e-16
-6.2748879e-16
3.3740111e-16
-4.0012874e-16
6.2978675e-16
-4.0549687e-16
2.6718255e-16
-2.5757106e-16
3.6119853e-16
-2.5516714e-16
3.3903458e-17
-1.3778013e-16
2.7752466e-16
-1.0579823e-16
-8.2994868e-17
-5.7737498e-17
-1.6163279e-17
6.6557749e-16
-3.0289798e-16
3.0197883e-16
-6.45676e-16
)
;

boundaryField
{
    movingWall
    {
        type            calculated;
        value           nonuniform List<scalar> 
16
(
1.0083675e-15
-1.3113267e-15
-1.0083675e-15
1.3113267e-15
-5.8341517e-16
4.5681078e-16
5.8341515e-16
-4.5681078e-16
2.9332538e-16
-6.0880352e-16
-2.9332538e-16
6.0880352e-16
-1.1932116e-15
1.1240239e-15
1.1932116e-15
-1.1240239e-15
)
;
    }
    CPLReceiveMD
    {
        type            calculated;
        value           nonuniform List<scalar> 
16
(
5.3196981e-11
-2.161009e-09
-5.3196981e-11
2.161009e-09
-6.7550708e-10
3.612725e-10
6.7550708e-10
-3.612725e-10
-5.2295519e-10
-1.4565935e-09
5.2295519e-10
1.4565935e-09
-9.0188455e-10
5.6721698e-10
9.0188455e-10
-5.6721698e-10
)
;
    }
    streamwiseIn
    {
        type            cyclic;
    }
    streamwiseOut
    {
        type            cyclic;
    }
    front
    {
        type            cyclic;
    }
    back
    {
        type            cyclic;
    }
}


// ************************************************************************* //
