/*--------------------------------*- C++ -*----------------------------------*\
| =========                 |                                                 |
| \\      /  F ield         | OpenFOAM: The Open Source CFD Toolbox           |
|  \\    /   O peration     | Version:  3.0.x                                 |
|   \\  /    A nd           | Web:      www.OpenFOAM.org                      |
|    \\/     M anipulation  |                                                 |
\*---------------------------------------------------------------------------*/
FoamFile
{
    version     2.0;
    format      ascii;
    class       volScalarField;
    location    "375";
    object      sigmaxx;
}
// * * * * * * * * * * * * * * * * * * * * * * * * * * * * * * * * * * * * * //

dimensions      [0 2 -2 0 0 0 0];

internalField   nonuniform List<scalar> 
960
(
-1.8083068e-08
-2.2298391e-08
2.5330211e-08
2.3289321e-08
-1.0816858e-08
-1.4948246e-08
1.2460024e-08
1.5630658e-08
-4.3267495e-08
-4.0397498e-08
4.3311488e-08
4.0849947e-08
-2.8260297e-08
-2.6611537e-08
2.8245927e-08
2.7443055e-08
-3.4597016e-08
-3.1344481e-08
3.5164843e-08
3.2477777e-08
-3.7372349e-08
-3.5893305e-08
3.7447064e-08
3.6621978e-08
-3.1036217e-08
-3.2250015e-08
3.0719491e-08
3.255743e-08
-1.8410176e-08
-2.1525687e-08
1.788442e-08
2.1502648e-08
-3.8237623e-09
-7.5644258e-09
3.2361924e-09
7.3326279e-09
8.7076894e-09
5.4023731e-09
-9.2767143e-09
-5.743133e-09
1.7249741e-08
1.4889877e-08
-1.7770178e-08
-1.5273611e-08
2.1599397e-08
1.9928824e-08
-2.2069078e-08
-2.0318848e-08
2.2648999e-08
2.1811025e-08
-2.3076758e-08
-2.2192209e-08
2.1444712e-08
2.089483e-08
-2.1840091e-08
-2.1262509e-08
1.8992375e-08
1.8644506e-08
-1.9361475e-08
-1.8997139e-08
1.6430762e-08
1.5781599e-08
-1.6775844e-08
-1.6118434e-08
1.3697424e-08
1.2936061e-08
-1.4018443e-08
-1.3256458e-08
1.1543535e-08
1.0436985e-08
-1.1839878e-08
-1.0739777e-08
9.7808051e-09
8.3329241e-09
-1.0052297e-08
-8.6164422e-09
8.4102747e-09
6.8558459e-09
-8.6576035e-09
-7.1186206e-09
7.4148733e-09
5.7715556e-09
-7.639597e-09
-6.0128964e-09
6.9913074e-09
5.279056e-09
-7.195573e-09
-5.4990005e-09
6.8906045e-09
5.1302165e-09
-7.0767685e-09
-5.3294268e-09
7.0873873e-09
5.0778138e-09
-7.2576793e-09
-5.2575066e-09
7.1157907e-09
5.3216682e-09
-7.2720818e-09
-5.4833693e-09
7.4014061e-09
5.8436966e-09
-7.5451022e-09
-5.989021e-09
7.9296125e-09
6.6297353e-09
-8.0616615e-09
-6.7602309e-09
8.2450655e-09
7.2251924e-09
-8.3660353e-09
-7.3422379e-09
8.5606689e-09
7.843916e-09
-8.6708493e-09
-7.9486655e-09
8.8693673e-09
8.7017604e-09
-8.9688777e-09
-8.7951259e-09
9.1656042e-09
9.5721467e-09
-9.2544863e-09
-9.6548072e-09
9.2230813e-09
1.0451293e-08
-9.3013568e-09
-1.052372e-08
1.0369805e-08
1.0226347e-08
-1.0437505e-08
-1.0288838e-08
1.0383954e-08
1.266672e-08
-1.0441127e-08
-1.2719432e-08
8.1539828e-09
1.2887241e-08
-8.2006834e-09
-1.2930221e-08
1.0335939e-08
1.5322889e-08
-1.0372202e-08
-1.5356093e-08
8.0526888e-09
1.5531898e-08
-8.0785124e-09
-1.5555216e-08
7.9616317e-09
1.5729533e-08
-7.9769599e-09
-1.5742808e-08
7.8444054e-09
1.5911565e-08
-7.8491278e-09
-1.5914613e-08
7.702518e-09
1.6073355e-08
-7.6964841e-09
-1.6066011e-08
7.5382575e-09
1.6209804e-08
-7.5212973e-09
-1.6191925e-08
7.3547066e-09
1.8534437e-08
-7.326663e-09
-1.8505906e-08
4.9366165e-09
1.6383767e-08
-4.8973857e-09
-1.6344562e-08
4.7268681e-09
1.640841e-08
-4.6764293e-09
-1.6358631e-08
2.2925737e-09
1.6381776e-08
-2.2310036e-09
-1.6321625e-08
4.2970595e-09
1.6295563e-08
-4.2245189e-09
-1.6225326e-08
1.8702732e-09
1.6140506e-08
-1.7869545e-09
-1.6060493e-08
-5.4288172e-10
1.5906252e-08
6.3686209e-10
-1.5816682e-08
-7.1672023e-10
1.3362167e-08
8.2148613e-10
-1.3262991e-08
1.354769e-09
1.2933831e-08
-1.2386314e-09
-1.2824508e-08
-9.8092596e-10
1.0169416e-08
1.1097578e-09
-1.0048649e-08
-1.0635241e-09
7.2741207e-09
1.2073909e-09
-7.1396465e-09
-1.1120296e-09
4.235285e-09
1.2745102e-09
-4.0838351e-09
-1.1300317e-09
1.0449233e-09
1.3159303e-09
-8.726213e-10
-3.3448852e-09
-2.2965097e-09
3.5593757e-09
2.4928921e-09
-3.3324069e-09
-8.0012575e-09
3.57906e-09
8.2217036e-09
-1.1050087e-09
-1.1581629e-08
1.3819818e-09
1.1819555e-08
-3.31253e-09
-1.4976621e-08
3.632261e-09
1.521072e-08
-3.1262095e-09
-1.6961881e-08
3.3505653e-09
1.7183552e-08
-7.2502858e-10
-1.1634631e-08
7.7855605e-10
1.18494e-08
-2.2594166e-08
-2.1353742e-08
2.3758595e-08
2.2805921e-08
-1.1764943e-08
-1.5165258e-08
1.1820148e-08
1.5917334e-08
-4.2845999e-08
-4.2122564e-08
4.3109933e-08
4.185473e-08
-2.6874059e-08
-2.794194e-08
2.7662649e-08
2.7769959e-08
-3.3538048e-08
-3.1931038e-08
3.4200434e-08
3.2163471e-08
-3.6374296e-08
-3.6136103e-08
3.6669995e-08
3.628916e-08
-3.0229242e-08
-3.2351553e-08
3.0193548e-08
3.2357235e-08
-1.787721e-08
-2.1585705e-08
1.7627813e-08
2.143621e-08
-3.4985052e-09
-7.5723588e-09
3.1488144e-09
7.3102766e-09
8.8879029e-09
5.4036549e-09
-9.263613e-09
-5.7249393e-09
1.7308159e-08
1.4897435e-08
-1.7675495e-08
-1.5237531e-08
2.1647796e-08
2.0189959e-08
-2.1998251e-08
-2.0526326e-08
2.2472294e-08
2.1876261e-08
-2.2809417e-08
-2.2198177e-08
2.1485499e-08
2.1197768e-08
-2.1814953e-08
-2.1501336e-08
1.9025288e-08
1.8729276e-08
-1.9350126e-08
-1.901514e-08
1.6230909e-08
1.586094e-08
-1.655085e-08
-1.6130504e-08
1.3707499e-08
1.3005013e-08
-1.4019735e-08
-1.3258522e-08
1.1320712e-08
1.0271303e-08
-1.1621233e-08
-1.0509146e-08
9.5493904e-09
8.597918e-09
-9.8342756e-09
-8.8209665e-09
8.3951524e-09
6.886753e-09
-8.661369e-09
-7.095966e-09
7.3970905e-09
6.0140281e-09
-7.6427995e-09
-6.2104056e-09
6.9733937e-09
5.2912734e-09
-7.1979325e-09
-5.4758231e-09
6.8744192e-09
5.1359834e-09
-7.0781e-09
-5.3095531e-09
6.852123e-09
5.0789333e-09
-7.0359606e-09
-5.2420686e-09
7.1056807e-09
5.319747e-09
-7.2711096e-09
-5.4727154e-09
7.3943972e-09
6.0619793e-09
-7.543027e-09
-6.2048322e-09
7.7032814e-09
6.625442e-09
-7.8367032e-09
-6.7580775e-09
8.2425397e-09
7.2210052e-09
-8.3621878e-09
-7.3432404e-09
8.5593007e-09
8.0622772e-09
-8.6663807e-09
-8.1739135e-09
8.6465811e-09
8.6991783e-09
-8.7420425e-09
-8.8000536e-09
9.1647018e-09
9.5707081e-09
-9.2492434e-09
-9.6607257e-09
9.2217991e-09
1.0451057e-08
-9.2958891e-09
-1.0530188e-08
8.1488324e-09
1.2446418e-08
-8.2127457e-09
-1.2514684e-08
1.0381468e-08
1.2668795e-08
-1.0435336e-08
-1.2726247e-08
8.1508976e-09
1.2890358e-08
-8.1947335e-09
-1.2937045e-08
1.0332353e-08
1.310784e-08
-1.0366076e-08
-1.3143775e-08
8.0487222e-09
1.5536841e-08
-8.0721896e-09
-1.5561985e-08
7.9573939e-09
1.351615e-08
-7.9704325e-09
-1.3530407e-08
7.8399805e-09
1.5918025e-08
-7.8424062e-09
-1.5921246e-08
7.6979561e-09
1.6080472e-08
-7.6896003e-09
-1.60725e-08
7.5335709e-09
1.6217506e-08
-7.5143076e-09
-1.6198185e-08
7.3498741e-09
1.8542633e-08
-7.3196482e-09
-1.851182e-08
4.9315969e-09
1.6392347e-08
-4.8904517e-09
-1.6350004e-08
4.7216104e-09
1.6417242e-08
-4.6697053e-09
-1.6363467e-08
2.2870382e-09
1.6390702e-08
-2.2246429e-09
-1.632572e-08
2.0721246e-09
1.6304404e-08
-1.9995823e-09
-1.6228552e-08
1.8642382e-09
1.3929951e-08
-1.7818849e-09
-1.384362e-08
-5.4899098e-10
1.5914361e-08
6.4096458e-10
-1.5817882e-08
1.4964896e-09
1.3369676e-08
-1.3947228e-09
-1.3263136e-08
-8.6963423e-10
1.0721558e-08
9.8201152e-10
-1.0604567e-08
-9.8498341e-10
1.0175678e-08
1.1097586e-09
-1.0047092e-08
-3.2847344e-09
9.499227e-09
3.4249619e-09
-9.3568824e-09
-1.1113736e-09
4.2416596e-09
1.2714756e-09
-4.0822365e-09
-3.3451506e-09
3.2720279e-09
3.5305001e-09
-3.091289e-09
-1.1183339e-09
-2.2849595e-09
1.3336567e-09
2.491132e-09
-3.3222555e-09
-5.7644027e-09
3.568415e-09
5.9977851e-09
-3.3129308e-09
-9.3374604e-09
3.5826703e-09
9.5952353e-09
-3.300746e-09
-1.4925207e-08
3.5753143e-09
1.5190435e-08
-3.1247113e-09
-1.4770518e-08
3.3111404e-09
1.4983728e-08
-7.4082805e-10
-1.1810905e-08
8.1214648e-10
1.1939719e-08
-2.4524432e-08
-2.1641799e-08
2.5059664e-08
2.3831239e-08
-1.162188e-08
-1.4840631e-08
1.072017e-08
1.5477159e-08
-4.2260228e-08
-4.1031089e-08
4.1730573e-08
4.033177e-08
-2.6882744e-08
-2.7164144e-08
2.7096961e-08
2.6845847e-08
-3.4152822e-08
-3.1803803e-08
3.4391669e-08
3.1961164e-08
-3.6965562e-08
-3.6216354e-08
3.6949237e-08
3.6264048e-08
-3.0653183e-08
-3.2442395e-08
3.0393412e-08
3.2328936e-08
-1.8103749e-08
-2.162556e-08
1.7697868e-08
2.1370607e-08
-3.5776738e-09
-7.6109894e-09
3.118394e-09
7.2661413e-09
8.9085582e-09
5.363912e-09
-9.3607906e-09
-5.7467346e-09
1.7339063e-08
1.4892003e-08
-1.775885e-08
-1.5276395e-08
2.1668672e-08
1.9940401e-08
-2.2055107e-08
-2.031026e-08
2.2701735e-08
2.1826231e-08
-2.306261e-08
-2.2179262e-08
2.1484403e-08
2.0909441e-08
-2.182707e-08
-2.1249098e-08
1.9022131e-08
1.8656544e-08
-1.9350135e-08
-1.8985057e-08
1.6453076e-08
1.579102e-08
-1.6766267e-08
-1.6108595e-08
1.3714192e-08
1.2943247e-08
-1.4010507e-08
-1.3249347e-08
1.155619e-08
1.0442284e-08
-1.1833385e-08
-1.0735019e-08
9.7904013e-09
8.3366455e-09
-1.0047037e-08
-8.6133653e-09
8.4175664e-09
6.8582938e-09
-8.653388e-09
-7.1167601e-09
7.4204109e-09
5.7730963e-09
-7.636256e-09
-6.0118693e-09
6.9954978e-09
5.2800018e-09
-7.192959e-09
-5.498509e-09
6.8937482e-09
5.1307794e-09
-7.074755e-09
-5.3292563e-09
7.0897188e-09
5.0781415e-09
-7.2561551e-09
-5.2575002e-09
7.117489e-09
5.3218574e-09
-7.2709525e-09
-5.4834254e-09
7.4026106e-09
5.8438129e-09
-7.5442877e-09
-5.9890798e-09
7.9304388e-09
6.6298193e-09
-8.0610927e-09
-6.7602619e-09
8.2456072e-09
7.2252668e-09
-8.3656547e-09
-7.3422303e-09
8.5610007e-09
7.8439901e-09
-8.6706093e-09
-7.9486202e-09
8.8695483e-09
8.7018372e-09
-8.9687401e-09
-8.7950498e-09
9.1656807e-09
9.5722262e-09
-9.2544205e-09
-9.6547108e-09
9.2230887e-09
1.0451373e-08
-9.3013394e-09
-1.0523613e-08
1.0369769e-08
1.0226423e-08
-1.0437518e-08
-1.0288728e-08
1.0383895e-08
1.266679e-08
-1.0441158e-08
-1.2719326e-08
8.1539141e-09
1.2887304e-08
-8.2007224e-09
-1.2930124e-08
1.0335869e-08
1.5322944e-08
-1.0372244e-08
-1.5356007e-08
8.0526238e-09
1.5531944e-08
-8.0785519e-09
-1.5555143e-08
7.9615746e-09
1.5729571e-08
-7.9769951e-09
-1.5742747e-08
7.8443567e-09
1.5911595e-08
-7.8491579e-09
-1.5914564e-08
7.7024786e-09
1.6073378e-08
-7.6965083e-09
-1.6065973e-08
7.538227e-09
1.6209822e-08
-7.5213167e-09
-1.6191897e-08
7.354683e-09
1.853445e-08
-7.326678e-09
-1.8505885e-08
4.9365996e-09
1.6383776e-08
-4.8973968e-09
-1.6344547e-08
4.7268565e-09
1.6408417e-08
-4.6764375e-09
-1.6358621e-08
2.2925658e-09
1.6381781e-08
-2.2310088e-09
-1.6321618e-08
4.2970544e-09
1.6295565e-08
-4.2245224e-09
-1.6225323e-08
1.8702708e-09
1.6140506e-08
-1.7869562e-09
-1.6060491e-08
-5.4288297e-10
1.5906252e-08
6.3686192e-10
-1.5816681e-08
-7.1672045e-10
1.3362166e-08
8.2148565e-10
-1.3262991e-08
1.3547696e-09
1.293383e-08
-1.2386314e-09
-1.2824509e-08
-9.8092474e-10
1.0169415e-08
1.1097586e-09
-1.004865e-08
-1.0635227e-09
7.2741203e-09
1.2073912e-09
-7.1396479e-09
-1.1120288e-09
4.2352844e-09
1.2745105e-09
-4.0838363e-09
-1.1300307e-09
1.0449225e-09
1.315931e-09
-8.7262196e-10
-3.3448843e-09
-2.2965102e-09
3.5593762e-09
2.4928913e-09
-3.3324061e-09
-8.0012581e-09
3.5790605e-09
8.2217027e-09
-1.1050081e-09
-1.1581629e-08
1.3819822e-09
1.1819554e-08
-3.3125295e-09
-1.4976622e-08
3.6322614e-09
1.5210719e-08
-3.126209e-09
-1.6961881e-08
3.3505655e-09
1.7183551e-08
-7.2502812e-10
-1.1634632e-08
7.7855629e-10
1.18494e-08
-2.2671911e-08
-2.1085164e-08
2.3882259e-08
2.2993732e-08
-1.1646183e-08
-1.4974749e-08
1.1759515e-08
1.6174751e-08
-4.2734622e-08
-4.195473e-08
4.3188597e-08
4.2049885e-08
-2.6699742e-08
-2.7844994e-08
2.7752014e-08
2.791953e-08
-3.3372209e-08
-3.1869598e-08
3.42552e-08
3.2218251e-08
-3.6252334e-08
-3.6127682e-08
3.6691204e-08
3.6296799e-08
-3.0170366e-08
-3.2377916e-08
3.0207e-08
3.2347554e-08
-1.7849816e-08
-2.161501e-08
1.7623876e-08
2.1409226e-08
-3.4913206e-09
-7.5980566e-09
3.1360628e-09
7.277983e-09
8.8837005e-09
5.3834497e-09
-9.2797854e-09
-5.7554196e-09
1.7298787e-08
1.4882033e-08
-1.7691623e-08
-1.5262881e-08
2.163706e-08
2.0178986e-08
-2.201261e-08
-2.0545812e-08
2.2462317e-08
2.1868903e-08
-2.2821254e-08
-2.221246e-08
2.1477377e-08
2.1192555e-08
-2.1824089e-08
-2.1511491e-08
1.9019344e-08
1.8725482e-08
-1.9356742e-08
-1.9022219e-08
1.6227046e-08
1.5858202e-08
-1.6555288e-08
-1.6135586e-08
1.3705429e-08
1.3002923e-08
-1.4022415e-08
-1.3262561e-08
1.1320062e-08
1.0269652e-08
-1.1622569e-08
-1.0512544e-08
9.5497686e-09
8.5965371e-09
-9.8346416e-09
-8.8238415e-09
8.3962e-09
6.8854762e-09
-8.6610899e-09
-7.0984402e-09
7.3985064e-09
6.0128384e-09
-7.6421344e-09
-6.2125502e-09
6.9749461e-09
5.2902292e-09
-7.1970768e-09
-5.4776683e-09
6.8759423e-09
5.1350987e-09
-7.0771945e-09
-5.3111124e-09
6.8535069e-09
5.0782034e-09
-7.0350992e-09
-5.2433529e-09
7.1068658e-09
5.3191635e-09
-7.2703488e-09
-5.4737405e-09
7.3953608e-09
6.0615305e-09
-7.5423946e-09
-6.2056216e-09
7.7040241e-09
6.6251118e-09
-7.8362054e-09
-6.7586584e-09
8.2430805e-09
7.2207768e-09
-8.3618173e-09
-7.3436447e-09
8.559668e-09
8.0621329e-09
-8.666122e-09
-8.1741742e-09
8.6468074e-09
8.6990989e-09
-8.7418766e-09
-8.8002003e-09
9.164819e-09
9.5706768e-09
-9.2491503e-09
-9.6607873e-09
9.2218363e-09
1.0451061e-08
-9.2958504e-09
-1.0530189e-08
8.1488147e-09
1.2446444e-08
-8.2127453e-09
-1.2514645e-08
1.0381415e-08
1.2668834e-08
-1.043536e-08
-1.2726185e-08
8.1508259e-09
1.2890404e-08
-8.1947724e-09
-1.2936971e-08
1.0332274e-08
1.3107887e-08
-1.0366121e-08
-1.3143697e-08
8.0486433e-09
1.5536885e-08
-8.072236e-09
-1.5561911e-08
7.9573205e-09
1.351619e-08
-7.9704768e-09
-1.353034e-08
7.839916e-09
1.591806e-08
-7.842446e-09
-1.5921188e-08
7.697901e-09
1.6080501e-08
-7.6896344e-09
-1.6072451e-08
7.5335258e-09
1.6217529e-08
-7.514336e-09
-1.6198145e-08
7.3498388e-09
1.8542651e-08
-7.3196705e-09
-1.8511789e-08
4.9315692e-09
1.6392361e-08
-4.8904688e-09
-1.634998e-08
4.7215899e-09
1.6417252e-08
-4.6697183e-09
-1.636345e-08
2.2870239e-09
1.6390709e-08
-2.2246524e-09
-1.6325707e-08
2.0721146e-09
1.6304409e-08
-1.9995886e-09
-1.6228543e-08
1.8642312e-09
1.3929954e-08
-1.7818889e-09
-1.3843616e-08
-5.4899463e-10
1.5914363e-08
6.4096195e-10
-1.5817879e-08
1.4964877e-09
1.3369677e-08
-1.3947242e-09
-1.3263134e-08
-8.6963445e-10
1.0721558e-08
9.8201093e-10
-1.0604567e-08
-9.8498304e-10
1.0175678e-08
1.1097587e-09
-1.0047093e-08
-3.2847341e-09
9.499226e-09
3.4249624e-09
-9.3568828e-09
-1.1113724e-09
4.2416587e-09
1.2714762e-09
-4.0822373e-09
-3.3451495e-09
3.2720273e-09
3.5305006e-09
-3.0912902e-09
-1.1183329e-09
-2.2849603e-09
1.3336573e-09
2.491131e-09
-3.3222546e-09
-5.7644031e-09
3.5684155e-09
5.9977843e-09
-3.31293e-09
-9.3374609e-09
3.5826708e-09
9.5952348e-09
-3.3007452e-09
-1.4925207e-08
3.5753147e-09
1.5190435e-08
-3.1247104e-09
-1.4770518e-08
3.3111408e-09
1.4983727e-08
-7.4082716e-10
-1.1810905e-08
8.12147e-10
1.1939718e-08
)
;

boundaryField
{
    movingWall
    {
        type            calculated;
        value           nonuniform List<scalar> 
16
(
-7.1983877e-10
-7.4203851e-10
-7.1983836e-10
-7.4203754e-10
-1.1462366e-08
-1.1685117e-08
-1.1462366e-08
-1.1685117e-08
7.2697301e-10
7.8253411e-10
7.269732e-10
7.8253463e-10
1.1672762e-08
1.1778191e-08
1.1672762e-08
1.177819e-08
)
;
    }
    CPLReceiveMD
    {
        type            calculated;
        value           nonuniform List<scalar> 
16
(
-1.3780649e-08
-2.2323146e-08
-2.5194415e-08
-2.2342953e-08
-2.2061444e-08
-2.0950024e-08
-2.1402014e-08
-2.067441e-08
2.6460838e-08
2.4328265e-08
2.6395061e-08
2.4435649e-08
2.3387085e-08
2.241066e-08
2.3780765e-08
2.2559304e-08
)
;
    }
    streamwiseIn
    {
        type            cyclic;
    }
    streamwiseOut
    {
        type            cyclic;
    }
    front
    {
        type            cyclic;
    }
    back
    {
        type            cyclic;
    }
}


// ************************************************************************* //
