/*--------------------------------*- C++ -*----------------------------------*\
| =========                 |                                                 |
| \\      /  F ield         | OpenFOAM: The Open Source CFD Toolbox           |
|  \\    /   O peration     | Version:  3.0.x                                 |
|   \\  /    A nd           | Web:      www.OpenFOAM.org                      |
|    \\/     M anipulation  |                                                 |
\*---------------------------------------------------------------------------*/
FoamFile
{
    version     2.0;
    format      ascii;
    class       volVectorField;
    location    "375";
    object      Ub;
}
// * * * * * * * * * * * * * * * * * * * * * * * * * * * * * * * * * * * * * //

dimensions      [0 1 -1 0 0 0 0];

internalField   nonuniform List<vector> 
960
(
(-0.014335733 -2.9841933e-09 2.0518007e-11)
(-0.014335815 2.3002946e-09 -2.61391e-10)
(-0.014335814 -3.9943285e-09 -1.9862868e-10)
(-0.014335728 -3.1011946e-09 -3.4126673e-10)
(-0.011156457 8.1833263e-10 2.7425047e-12)
(-0.011156503 7.4389961e-09 -2.2090218e-10)
(-0.011156497 -9.415299e-09 -2.1426273e-10)
(-0.011156471 -9.0815572e-09 -3.34062e-10)
(-0.0075709065 7.0280182e-09 -4.5321851e-11)
(-0.0075710528 1.6263515e-08 -1.7904688e-10)
(-0.0075710486 -1.5779383e-08 -2.1240781e-10)
(-0.0075708945 -1.8320156e-08 -3.0604388e-10)
(-0.0038677027 2.0623016e-08 -7.8922345e-11)
(-0.0038677899 2.7837857e-08 -1.4016039e-10)
(-0.0038677853 -2.7608221e-08 -1.9406801e-10)
(-0.0038677056 -3.0016478e-08 -2.6513488e-10)
(-0.00043793212 2.9819688e-08 -9.2105618e-11)
(-0.00043803898 3.536488e-08 -1.027436e-10)
(-0.00043803551 -3.7088957e-08 -1.6430709e-10)
(-0.00043792746 -3.8754079e-08 -2.1229263e-10)
(0.0024941245 4.3835826e-08 -8.9009932e-11)
(0.0024940079 4.7194063e-08 -7.0557296e-11)
(0.0024940102 -5.0966976e-08 -1.3101207e-10)
(0.0024941235 -5.1409864e-08 -1.5939582e-10)
(0.0048674619 5.7061527e-08 -7.6714042e-11)
(0.0048673583 5.9518428e-08 -4.5162568e-11)
(0.0048673598 -6.3630155e-08 -9.9453955e-11)
(0.0048674541 -6.4086067e-08 -1.1383308e-10)
(0.0067569069 6.6497208e-08 -6.1020492e-11)
(0.0067568374 6.9181519e-08 -2.6540948e-11)
(0.0067568384 -7.2258835e-08 -7.2453305e-11)
(0.0067568944 -7.3693552e-08 -7.7373997e-11)
(0.0083096555 7.0476365e-08 -4.5571856e-11)
(0.0083096295 7.404446e-08 -1.3984481e-11)
(0.0083096303 -7.5370349e-08 -5.0645793e-11)
(0.0083096418 -7.8233109e-08 -4.996185e-11)
(0.0096874617 6.9220219e-08 -3.2171008e-11)
(0.009687476 7.3788265e-08 -5.875709e-12)
(0.0096874768 -7.3294834e-08 -3.3938637e-11)
(0.0096874497 -7.7515424e-08 -3.0417892e-11)
(0.011032167 6.4125189e-08 -2.1572835e-11)
(0.011032211 6.9483691e-08 -9.0299407e-13)
(0.011032212 -6.7470344e-08 -2.1710485e-11)
(0.011032158 -7.2698792e-08 -1.7145393e-11)
(0.012452597 5.6876267e-08 -1.37294e-11)
(0.012452658 6.2725652e-08 1.8745589e-12)
(0.012452658 -5.9583913e-08 -1.3135478e-11)
(0.012452591 -6.5430123e-08 -8.5002603e-12)
(0.014024824 4.892288e-08 -8.3164244e-12)
(0.014024892 5.5021882e-08 3.2432286e-12)
(0.014024892 -5.1069096e-08 -7.4138374e-12)
(0.014024821 -5.7238565e-08 -3.0811542e-12)
(0.015798491 4.128055e-08 -4.8534868e-12)
(0.015798558 4.750237e-08 3.8976631e-12)
(0.015798557 -4.2923061e-08 -3.8161636e-12)
(0.01579849 -4.9258305e-08 1.8677956e-13)
(0.017804501 3.4531986e-08 -2.8395917e-12)
(0.017804562 4.0860367e-08 4.052546e-12)
(0.017804561 -3.5714618e-08 -1.7292765e-12)
(0.017804501 -4.21816e-08 2.08027e-12)
(0.020061819 2.8918277e-08 -1.8320051e-12)
(0.020061874 3.5419506e-08 3.9581447e-12)
(0.020061871 -2.9677083e-08 -6.6706431e-13)
(0.02006182 -3.6330724e-08 3.1426456e-12)
(0.022582645 2.4450318e-08 -1.4708271e-12)
(0.022582693 3.1241594e-08 3.737631e-12)
(0.022582689 -2.4818257e-08 -2.5407621e-13)
(0.022582647 -3.1766072e-08 3.7372367e-12)
(0.02537597 2.100597e-08 -1.4787351e-12)
(0.025376012 2.8227008e-08 3.4663637e-12)
(0.025376007 -2.1015008e-08 -2.1956467e-13)
(0.025375972 -2.8387498e-08 3.9981676e-12)
(0.028449829 1.8401309e-08 -1.656686e-12)
(0.028449866 2.6193721e-08 3.1798298e-12)
(0.02844986 -1.8082762e-08 -3.7364827e-13)
(0.028449831 -2.601369e-08 4.0360946e-12)
(0.031812591 1.6437283e-08 -1.8722796e-12)
(0.031812625 2.4931516e-08 2.9105701e-12)
(0.031812618 -1.582131e-08 -5.9127777e-13)
(0.031812594 -2.4435734e-08 3.9258704e-12)
(0.03547359 1.4927201e-08 -2.0471995e-12)
(0.035473622 2.4235287e-08 2.6390194e-12)
(0.035473614 -1.4041968e-08 -7.9807619e-13)
(0.035473594 -2.3449288e-08 3.7147587e-12)
(0.039443329 1.3710491e-08 -2.1425644e-12)
(0.039443361 2.3922517e-08 2.3626535e-12)
(0.039443352 -1.2581479e-08 -9.5476031e-13)
(0.039443334 -2.2871752e-08 3.4342447e-12)
(0.043733435 1.2657496e-08 -2.1480436e-12)
(0.043733468 2.3839997e-08 2.086586e-12)
(0.043733458 -1.1307186e-08 -1.0460089e-12)
(0.043733441 -2.254929e-08 3.1085635e-12)
(0.048356476 1.166895e-08 -2.0694243e-12)
(0.048356511 2.386466e-08 1.8163433e-12)
(0.048356499 -1.0116903e-08 -1.0720306e-12)
(0.048356483 -2.235752e-08 2.7578213e-12)
(0.053325716 1.067272e-08 -1.9235167e-12)
(0.053325753 2.3900716e-08 1.5568856e-12)
(0.05332574 -8.9359627e-09 -1.0419942e-12)
(0.053325725 -2.2198894e-08 2.399027e-12)
(0.058654857 9.6195196e-09 -1.7302271e-12)
(0.058654897 2.3875225e-08 1.3128573e-12)
(0.058654883 -7.7130995e-09 -9.6920209e-13)
(0.058654868 -2.1998542e-08 2.0464737e-12)
(0.064357782 8.4785671e-09 -1.509636e-12)
(0.064357827 2.3733433e-08 1.0881791e-12)
(0.064357811 -6.4161465e-09 -8.6783808e-13)
(0.064357796 -2.169981e-08 1.7116088e-12)
(0.070448322 7.2337418e-09 -1.2795443e-12)
(0.070448371 2.3434545e-08 8.8570685e-13)
(0.070448353 -5.0281101e-09 -7.5096724e-13)
(0.070448339 -2.1260167e-08 1.4029319e-12)
(0.076940033 5.8803986e-09 -1.0543669e-12)
(0.076940085 2.2948247e-08 7.0711813e-13)
(0.076940066 -3.5438677e-09 -6.2945794e-13)
(0.076940052 -2.0647811e-08 1.1260698e-12)
(0.083845995 4.4228566e-09 -8.4455506e-13)
(0.083846052 2.2252047e-08 5.5293626e-13)
(0.083846031 -1.9675285e-09 -5.115688e-13)
(0.083846018 -1.9839044e-08 8.8401687e-13)
(0.091178632 2.872482e-09 -6.5681376e-13)
(0.091178693 2.1329381e-08 4.2265679e-13)
(0.091178671 -3.103879e-10 -4.0299386e-13)
(0.091178658 -1.8816379e-08 6.7750805e-13)
(0.098949531 1.2462062e-09 -4.9466944e-13)
(0.098949597 2.016835e-08 3.1493108e-13)
(0.098949573 1.4106435e-09 -3.0715422e-13)
(0.098949562 -1.7567251e-08 5.0548023e-13)
(0.10716929 -4.3464745e-10 -3.591237e-13)
(0.10716936 1.8760975e-08 2.2780299e-13)
(0.10716933 3.1742611e-09 -2.2562701e-13)
(0.10716932 -1.6083238e-08 3.6555279e-13)
(0.11584733 -2.1452776e-09 -2.4921962e-13)
(0.11584741 1.7102829e-08 1.5894138e-13)
(0.11584738 4.9557021e-09 -1.586003e-13)
(0.11584737 -1.4359651e-08 2.5448341e-13)
(0.12499181 -3.8582291e-09 -1.6284759e-13)
(0.12499189 1.5192957e-08 1.0583232e-13)
(0.12499186 6.7275698e-09 -1.0528429e-13)
(0.12499186 -1.2395415e-08 1.6855396e-13)
(0.13460942 -5.5441883e-09 -9.7168695e-14)
(0.13460951 1.3033983e-08 6.5965547e-14)
(0.13460948 8.4606018e-09 -6.4284287e-14)
(0.13460947 -1.019315e-08 1.0392014e-13)
(0.14470529 -7.1727181e-09 -4.9011974e-14)
(0.14470538 1.0632358e-08 3.6947147e-14)
(0.14470535 1.0124379e-08 -3.3891338e-14)
(0.14470535 -7.7593938e-09 5.6823157e-14)
(0.15528285 -8.7130229e-09 -1.5198917e-14)
(0.15528294 7.9987101e-09 1.6588288e-14)
(0.15528291 1.1688071e-08 -1.2298044e-14)
(0.15528291 -5.1049266e-09 2.3800344e-14)
(0.16634371 -1.013475e-08 7.2439098e-15)
(0.16634381 5.1482458e-09 2.9618692e-15)
(0.16634377 1.3121226e-08 2.242687e-15)
(0.16634378 -2.2451529e-09 1.7573516e-15)
(0.17788759 -1.1408825e-08 2.0974068e-14)
(0.17788769 2.1011963e-09 -5.5756698e-15)
(0.17788765 1.4394612e-08 1.132146e-14)
(0.17788766 7.9948499e-10 -1.1967231e-14)
(0.18991218 -1.2508319e-08 2.82629e-14)
(0.18991228 -1.1166986e-09 -1.0389071e-14)
(0.18991224 1.5481111e-08 1.6329486e-14)
(0.18991225 4.0030865e-09 -1.9590662e-14)
(0.20241309 -1.3409353e-08 3.0991755e-14)
(0.2024132 -4.4736289e-09 -1.2575649e-14)
(0.20241316 1.6356644e-08 1.8422026e-14)
(0.20241317 7.3336801e-09 -2.2913042e-14)
(0.21538381 -1.4091998e-08 3.0669928e-14)
(0.21538391 -7.9311456e-09 -1.2998486e-14)
(0.21538387 1.7001123e-08 1.8522729e-14)
(0.21538389 1.0752713e-08 -2.3344662e-14)
(0.22881559 -1.4541167e-08 2.844384e-14)
(0.22881569 -1.1443527e-08 -1.2315132e-14)
(0.22881565 1.7399383e-08 1.7362174e-14)
(0.22881567 1.421452e-08 -2.1956833e-14)
(0.24269748 -1.4747469e-08 2.5163518e-14)
(0.24269758 -1.4957007e-08 -1.1004086e-14)
(0.24269754 1.7542063e-08 1.5488462e-14)
(0.24269757 1.7665506e-08 -1.9545051e-14)
(0.25701628 -1.4707973e-08 2.1442779e-14)
(0.25701639 -1.8408901e-08 -9.4034847e-15)
(0.25701634 1.7426376e-08 1.3293162e-14)
(0.25701637 2.1043274e-08 -1.6675419e-14)
(0.27175656 -1.4426836e-08 1.7697242e-14)
(0.27175667 -2.1726588e-08 -7.7424188e-15)
(0.27175662 1.70567e-08 1.104251e-14)
(0.27175666 2.4275564e-08 -1.3727048e-14)
(0.28690068 -1.3915726e-08 1.4190779e-14)
(0.28690078 -2.482634e-08 -6.1603972e-15)
(0.28690074 1.6444919e-08 8.9094302e-15)
(0.28690078 2.7278992e-08 -1.0945266e-14)
(0.30242882 -1.3193932e-08 1.1064138e-14)
(0.30242891 -2.761203e-08 -4.7448624e-15)
(0.30242887 1.5610371e-08 7.0001449e-15)
(0.30242891 2.9957582e-08 -8.4602085e-15)
(0.31831905 -1.2288031e-08 8.386771e-15)
(0.31831915 -2.9973776e-08 -3.5327832e-15)
(0.3183191 1.4579303e-08 5.3556504e-15)
(0.31831914 3.2201192e-08 -6.3354763e-15)
(0.33454745 -1.1230964e-08 6.1680408e-15)
(0.33454753 -3.1786703e-08 -2.5294369e-15)
(0.33454749 1.3383655e-08 3.9821275e-15)
(0.33454753 3.3883976e-08 -4.5834951e-15)
(0.35108813 -1.0060319e-08 4.3820444e-15)
(0.35108821 -3.2910068e-08 -1.7283564e-15)
(0.35108816 1.2059013e-08 2.8716182e-15)
(0.35108821 3.4863217e-08 -3.1846095e-15)
(0.36791345 -8.8156699e-09 2.9753916e-15)
(0.36791352 -3.3187383e-08 -1.1062067e-15)
(0.36791347 1.0641637e-08 1.9985014e-15)
(0.36791352 3.497926e-08 -2.0933649e-15)
(0.38499406 -7.534868e-09 1.9026483e-15)
(0.38499412 -3.2449151e-08 -6.406635e-16)
(0.38499407 9.1645649e-09 1.3304262e-15)
(0.38499412 3.4058352e-08 -1.2631934e-15)
(0.40229914 -6.2493359e-09 1.1036425e-15)
(0.40229918 -3.0520749e-08 -3.026857e-16)
(0.40229914 7.6531227e-09 8.3659435e-16)
(0.40229919 3.1921323e-08 -6.4878066e-16)
(0.4197965 -4.978224e-09 5.2456467e-16)
(0.41979653 -2.7233713e-08 -6.4349774e-17)
(0.41979648 6.1208072e-09 4.7437213e-16)
(0.41979654 2.8396924e-08 -2.056492e-16)
(0.4374528 -3.7210307e-09 1.0627071e-16)
(0.43745282 -2.2429037e-08 9.950948e-17)
(0.43745277 4.5646612e-09 2.241054e-16)
(0.43745282 2.3328972e-08 1.046242e-16)
(0.45523375 -2.4687184e-09 -1.8902092e-16)
(0.45523375 -1.6050562e-08 2.0649831e-16)
(0.45523371 2.9822877e-09 5.4354231e-17)
(0.45523376 1.6673436e-08 3.1995696e-16)
(0.47310427 -1.2378665e-09 -3.8359334e-16)
(0.47310426 -8.5754465e-09 2.5828813e-16)
(0.47310422 1.3553787e-09 -6.7127003e-17)
(0.47310427 8.9437378e-09 4.7034484e-16)
(0.49102875 -4.0869343e-10 -4.1065e-16)
(0.49102874 -2.7280754e-09 2.2082537e-16)
(0.49102872 4.1274405e-10 -1.2551412e-16)
(0.49102874 2.8475294e-09 4.7053497e-16)
(-0.014335732 1.7153947e-09 -1.2148346e-09)
(-0.014335816 1.2782528e-09 1.5782351e-10)
(-0.014335816 -2.8762557e-09 -5.3721532e-10)
(-0.014335729 -2.1834692e-09 2.2519998e-10)
(-0.01115648 5.7616772e-09 -3.1228419e-09)
(-0.011156526 4.7516138e-09 -3.4539999e-10)
(-0.011156521 -7.335029e-09 -7.6397687e-10)
(-0.011156497 -7.4480583e-09 -2.3803888e-10)
(-0.0075709047 1.3820208e-08 -2.6215732e-09)
(-0.0075710506 1.4944945e-08 -5.336108e-10)
(-0.0075710477 -1.521304e-08 -7.7481069e-10)
(-0.0075708968 -1.7837832e-08 -4.4157904e-10)
(-0.0038677113 2.5532959e-08 -2.1752979e-09)
(-0.0038677984 2.8255419e-08 -5.8259433e-10)
(-0.0038677945 -2.78356e-08 -7.0080059e-10)
(-0.0038677167 -3.0588076e-08 -5.2033495e-10)
(-0.00043793058 3.3637956e-08 -1.6758465e-09)
(-0.00043803766 3.6401066e-08 -5.5024501e-10)
(-0.00043803459 -3.6959275e-08 -5.9335247e-10)
(-0.00043792819 -3.9107635e-08 -5.1443779e-10)
(0.0024941225 4.6482965e-08 -1.2439999e-09)
(0.0024940055 4.8302167e-08 -4.8105352e-10)
(0.0024940076 -5.0419127e-08 -4.8293534e-10)
(0.0024941195 -5.1321453e-08 -4.6423482e-10)
(0.0048674545 5.8747745e-08 -9.0767066e-10)
(0.0048673506 6.0525639e-08 -4.0070754e-10)
(0.004867352 -6.2851489e-08 -3.8254841e-10)
(0.004867445 -6.3695694e-08 -3.967974e-10)
(0.0067568951 6.7521141e-08 -6.5680931e-10)
(0.0067568254 7.0093927e-08 -3.2230191e-10)
(0.0067568264 -7.1465023e-08 -2.9689549e-10)
(0.0067568814 -7.3206246e-08 -3.2588986e-10)
(0.0083096419 7.1094407e-08 -4.7215485e-10)
(0.0083096159 7.4911373e-08 -2.5344269e-10)
(0.0083096168 -7.4699029e-08 -2.2754052e-10)
(0.0083096275 -7.7794291e-08 -2.5939611e-10)
(0.0096874488 6.9597344e-08 -3.3704765e-10)
(0.0096874632 7.4634311e-08 -1.9495025e-10)
(0.009687464 -7.2795559e-08 -1.7202676e-10)
(0.0096874365 -7.7183661e-08 -2.0125087e-10)
(0.011032156 6.4349474e-08 -2.3884022e-10)
(0.0110322 7.029688e-08 -1.471043e-10)
(0.011032201 -6.7134165e-08 -1.2833182e-10)
(0.011032147 -7.2468443e-08 -1.5294982e-10)
(0.012452588 5.6989483e-08 -1.679516e-10)
(0.01245265 6.3479943e-08 -1.0920339e-10)
(0.01245265 -5.9375281e-08 -9.4523764e-11)
(0.012452583 -6.526602e-08 -1.1434718e-10)
(0.014024818 4.8945688e-08 -1.1714543e-10)
(0.014024886 5.5691904e-08 -7.9995721e-11)
(0.014024886 -5.0948023e-08 -6.8745841e-11)
(0.014024816 -5.7102908e-08 -8.4411897e-11)
(0.015798486 4.1227871e-08 -8.094997e-11)
(0.015798554 4.8069827e-08 -5.8167819e-11)
(0.015798553 -4.2855981e-08 -4.9349087e-11)
(0.015798486 -4.9124742e-08 -6.1761423e-11)
(0.017804497 3.4418924e-08 -5.5300058e-11)
(0.017804559 4.1319027e-08 -4.2117906e-11)
(0.017804557 -3.5677429e-08 -3.492096e-11)
(0.017804498 -4.2038561e-08 -4.4944125e-11)
(0.020061816 2.8761551e-08 -3.7221959e-11)
(0.020061871 3.5775264e-08 -3.0403336e-11)
(0.020061868 -2.9654247e-08 -2.4296216e-11)
(0.020061818 -3.6177882e-08 -3.2681168e-11)
(0.022582643 2.4267477e-08 -2.4563124e-11)
(0.022582691 3.150674e-08 -2.1923209e-11)
(0.022582687 -2.4800648e-08 -1.6557546e-11)
(0.022582645 -3.1610507e-08 -2.3909067e-11)
(0.025375968 2.0813242e-08 -1.57679e-11)
(0.02537601 2.8417009e-08 -1.5834573e-11)
(0.025376004 -2.099771e-08 -1.0985941e-11)
(0.025375971 -2.8240133e-08 -1.7619989e-11)
(0.028449826 1.8211845e-08 -9.7245933e-12)
(0.028449864 2.6324932e-08 -1.1491265e-11)
(0.028449858 -1.806338e-08 -7.0319733e-12)
(0.02844983 -2.588479e-08 -1.3102126e-11)
(0.031812589 1.62604e-08 -5.6366538e-12)
(0.031812623 2.5019488e-08 -8.4070812e-12)
(0.031812616 -1.5798909e-08 -4.2754471e-12)
(0.031812592 -2.4332426e-08 -9.8466355e-12)
(0.035473587 1.4768296e-08 -2.9316665e-12)
(0.03547362 2.4293537e-08 -6.1976368e-12)
(0.035473612 -1.4016487e-08 -2.3965245e-12)
(0.035473592 -2.3374821e-08 -7.4762339e-12)
(0.039443326 1.3571484e-08 -1.1959398e-12)
(0.039443359 2.3962002e-08 -4.6043386e-12)
(0.039443349 -1.2553415e-08 -1.1535726e-12)
(0.039443332 -2.2825759e-08 -5.7293127e-12)
(0.043733432 1.2537591e-08 -1.3444063e-13)
(0.043733466 2.3869371e-08 -3.442293e-12)
(0.043733455 -1.1277409e-08 -3.6429547e-13)
(0.043733439 -2.2528616e-08 -4.4206757e-12)
(0.048356473 1.156555e-08 4.690092e-13)
(0.048356508 2.3890365e-08 -2.5854022e-12)
(0.048356496 -1.0086526e-08 1.0726749e-13)
(0.048356481 -2.2357322e-08 -3.4224611e-12)
(0.053325713 1.0582332e-08 7.6580545e-13)
(0.053325751 2.392716e-08 -1.9457018e-12)
(0.053325737 -8.9062327e-09 3.6180344e-13)
(0.053325723 -2.2213615e-08 -2.648404e-12)
(0.058654853 9.5384963e-09 8.6575262e-13)
(0.058654895 2.3905097e-08 -1.4620698e-12)
(0.05865488 -7.6852731e-09 4.7297166e-13)
(0.058654866 -2.2022665e-08 -2.0401362e-12)
(0.064357779 8.4036607e-09 8.4607845e-13)
(0.064357824 2.3768044e-08 -1.0926939e-12)
(0.064357808 -6.3913795e-09 4.9374033e-13)
(0.064357794 -2.1728383e-08 -1.5579545e-12)
(0.070448319 7.1624201e-09 7.5996507e-13)
(0.070448368 2.3474165e-08 -8.0880283e-13)
(0.07044835 -5.0073904e-09 4.6139475e-13)
(0.070448336 -2.1289103e-08 -1.1744925e-12)
(0.076940029 5.8109665e-09 6.4294139e-13)
(0.076940083 2.2992406e-08 -5.9018484e-13)
(0.076940063 -3.5279845e-09 4.0148158e-13)
(0.07694005 -2.0673992e-08 -8.701897e-13)
(0.083845992 4.3544348e-09 5.17941e-13)
(0.083846049 2.229979e-08 -4.2225732e-13)
(0.083846028 -1.957072e-09 3.3087841e-13)
(0.083846016 -1.9860275e-08 -6.3038104e-13)
(0.091178629 2.8048707e-09 3.9888158e-13)
(0.091178691 2.137947e-08 -2.941702e-13)
(0.091178668 -3.0577642e-10 2.6016886e-13)
(0.091178656 -1.8831241e-08 -4.4350235e-13)
(0.098949528 1.1797037e-09 2.9334529e-13)
(0.098949595 2.0219425e-08 -1.9759287e-13)
(0.09894957 1.4091213e-09 1.954815e-13)
(0.09894956 -1.7574923e-08 -3.0008601e-13)
(0.10716928 -4.9944826e-10 2.0464767e-13)
(0.10716935 1.8811659e-08 -1.2594393e-13)
(0.10716933 3.1663988e-09 1.3986642e-13)
(0.10716932 -1.6083308e-08 -1.9215193e-13)
(0.11584733 -2.2076515e-09 1.33486e-13)
(0.11584741 1.7151797e-08 -7.3906132e-14)
(0.11584738 4.9413307e-09 9.4350593e-14)
(0.11584737 -1.4351961e-08 -1.1285215e-13)
(0.12499181 -3.9174416e-09 7.8745439e-14)
(0.12499189 1.5238972e-08 -3.7141374e-14)
(0.12499186 6.7065227e-09 5.8699827e-14)
(0.12499186 -1.2379936e-08 -5.6307624e-14)
(0.13460942 -5.599598e-09 3.8420004e-14)
(0.13460951 1.3075907e-08 -1.2115534e-14)
(0.13460947 8.4326947e-09 3.1952217e-14)
(0.13460947 -1.0169906e-08 -1.7539685e-14)
(0.14470529 -7.2238182e-09 1.0148876e-14)
(0.14470538 1.0669153e-08 4.0697846e-15)
(0.14470535 1.0089402e-08 1.2798121e-14)
(0.14470535 -7.7284239e-09 7.6680205e-15)
(0.15528285 -8.7594438e-09 -8.4623451e-15)
(0.15528294 8.0294299e-09 1.3740488e-14)
(0.1552829 1.1645794e-08 -1.751843e-16)
(0.15528291 -5.0662775e-09 2.2774872e-14)
(0.16634371 -1.0176238e-08 -1.9639323e-14)
(0.16634381 5.1720274e-09 1.8752691e-14)
(0.16634377 1.3071419e-08 -8.3243413e-15)
(0.16634378 -2.1988998e-09 3.0603851e-14)
(0.17788759 -1.1445203e-08 -2.5333123e-14)
(0.17788769 2.117255e-09 2.0556469e-14)
(0.17788765 1.4337067e-08 -1.2857985e-14)
(0.17788766 8.5321429e-10 3.338395e-14)
(0.18991218 -1.2539449e-08 -2.717253e-14)
(0.18991228 -1.1090727e-09 2.0260179e-14)
(0.18991224 1.541567e-08 -1.4798609e-14)
(0.18991225 4.0640874e-09 3.2840288e-14)
(0.20241309 -1.3435087e-08 -2.6462669e-14)
(0.2024132 -4.4750552e-09 1.8690669e-14)
(0.20241316 1.6283226e-08 -1.4976953e-14)
(0.20241317 7.4016305e-09 3.0273599e-14)
(0.21538381 -1.4112151e-08 -2.419521e-14)
(0.21538391 -7.942129e-09 1.6438951e-14)
(0.21538387 1.6919753e-08 -1.4046417e-14)
(0.21538389 1.0827149e-08 2.6627546e-14)
(0.22881559 -1.4555498e-08 -2.1116521e-14)
(0.22881569 -1.1464437e-08 1.3923159e-14)
(0.22881565 1.731022e-08 -1.2488145e-14)
(0.22881567 1.4294831e-08 2.2556726e-14)
(0.24269748 -1.4755678e-08 -1.774507e-14)
(0.24269758 -1.4988048e-08 1.1422221e-14)
(0.24269754 1.7445425e-08 -1.0650429e-14)
(0.24269757 1.7750926e-08 1.8499282e-14)
(0.25701628 -1.4709729e-08 -1.4423825e-14)
(0.25701639 -1.8450082e-08 9.1009512e-15)
(0.25701634 1.732277e-08 -8.7730451e-15)
(0.25701638 2.1132884e-08 1.4728459e-14)
(0.27175657 -1.4421836e-08 -1.1374173e-14)
(0.27175667 -2.1777706e-08 7.0486457e-15)
(0.27175662 1.6946855e-08 -6.9981933e-15)
(0.27175666 2.4368308e-08 1.1399133e-14)
(0.28690068 -1.3903773e-08 -8.6962505e-15)
(0.28690078 -2.4886975e-08 5.3013773e-15)
(0.28690074 1.6329802e-08 -5.4158926e-15)
(0.28690078 2.7373706e-08 8.5676383e-15)
(0.30242882 -1.3175055e-08 -6.4430559e-15)
(0.30242892 -2.7681565e-08 3.8602591e-15)
(0.30242887 1.5491211e-08 -4.0576791e-15)
(0.30242891 3.005305e-08 6.2385289e-15)
(0.31831906 -1.2262653e-08 -4.5999152e-15)
(0.31831915 -3.0051466e-08 2.7088899e-15)
(0.3183191 1.4457576e-08 -2.9411458e-15)
(0.31831915 3.2296234e-08 4.3746923e-15)
(0.33454745 -1.1200087e-08 -3.1416736e-15)
(0.33454754 -3.1871788e-08 1.8133682e-15)
(0.33454749 1.3261038e-08 -2.0482405e-15)
(0.33454754 3.3977579e-08 2.9261223e-15)
(0.35108813 -1.0025725e-08 -2.0220981e-15)
(0.35108821 -3.300198e-08 1.1405575e-15)
(0.35108817 1.1937285e-08 -1.3541554e-15)
(0.35108822 3.4954723e-08 1.8289994e-15)
(0.36791345 -8.780045e-09 -1.1833864e-15)
(0.36791352 -3.3286063e-08 6.455525e-16)
(0.36791347 1.0522539e-08 -8.314822e-16)
(0.36791352 3.5068583e-08 1.0274921e-15)
(0.38499406 -7.5017629e-09 -5.7594465e-16)
(0.38499412 -3.255554e-08 2.9150889e-16)
(0.38499408 9.0497294e-09 -4.4945499e-16)
(0.38499413 3.4146227e-08 4.5726266e-16)
(0.40229914 -6.2227975e-09 -1.528362e-16)
(0.40229919 -3.0637562e-08 4.3388477e-17)
(0.40229914 7.5443592e-09 -1.7690321e-16)
(0.40229919 3.2009618e-08 6.5616567e-17)
(0.4197965 -4.9619947e-09 1.3107732e-16)
(0.41979653 -2.7366333e-08 -1.145276e-16)
(0.41979649 6.0209581e-09 7.5559818e-18)
(0.41979654 2.8488796e-08 -2.0543952e-16)
(0.4374528 -3.717546e-09 3.1842356e-16)
(0.43745282 -2.2586126e-08 -2.1545889e-16)
(0.43745278 4.4800732e-09 1.2651813e-16)
(0.43745283 2.3428164e-08 -3.8392393e-16)
(0.45523375 -2.47792e-09 4.4262611e-16)
(0.45523375 -1.6240067e-08 -2.6706277e-16)
(0.45523371 2.9242978e-09 1.9593602e-16)
(0.45523376 1.6777116e-08 -5.0031664e-16)
(0.47310427 -1.2611436e-09 5.2836243e-16)
(0.47310426 -8.8493e-09 -2.6678937e-16)
(0.47310423 1.4001183e-09 2.3432614e-16)
(0.47310427 9.0889967e-09 -5.5211724e-16)
(0.49102875 -4.2129753e-10 5.0201292e-16)
(0.49102874 -2.8545441e-09 -1.6660541e-16)
(0.49102872 4.4428926e-10 2.3295482e-16)
(0.49102874 2.9073873e-09 -4.2544829e-16)
(-0.014335733 3.3159253e-09 -2.0518007e-11)
(-0.014335814 1.9656676e-09 2.61391e-10)
(-0.014335814 -4.2183448e-09 1.9862868e-10)
(-0.014335728 -3.2679622e-09 3.4126673e-10)
(-0.011156457 8.4262262e-09 -2.7425047e-12)
(-0.011156501 6.4415616e-09 2.2090218e-10)
(-0.011156496 -9.6223093e-09 2.1426273e-10)
(-0.011156474 -9.9185139e-09 3.34062e-10)
(-0.0075709066 1.452858e-08 4.5321851e-11)
(-0.007571051 1.5840318e-08 1.7904688e-10)
(-0.0075710485 -1.5342025e-08 2.1240781e-10)
(-0.0075708964 -1.8882221e-08 3.0604388e-10)
(-0.0038677028 2.5165681e-08 7.8922345e-11)
(-0.0038677884 2.7842273e-08 1.4016039e-10)
(-0.0038677852 -2.6870574e-08 1.9406801e-10)
(-0.0038677071 -3.0222518e-08 2.6513487e-10)
(-0.00043793216 3.3511131e-08 9.2105618e-11)
(-0.00043803789 3.5710244e-08 1.027436e-10)
(-0.00043803547 -3.6260531e-08 1.6430709e-10)
(-0.00043792854 -3.8585126e-08 2.1229263e-10)
(0.0024941245 4.6774176e-08 8.9009932e-11)
(0.0024940086 4.7727318e-08 7.0557296e-11)
(0.0024940102 -5.0165102e-08 1.3101207e-10)
(0.0024941227 -5.10015e-08 1.5939582e-10)
(0.0048674619 5.9331225e-08 7.6714042e-11)
(0.0048673589 6.0112573e-08 4.5162568e-11)
(0.0048673598 -6.2913872e-08 9.9453955e-11)
(0.0048674536 -6.3572166e-08 1.1383308e-10)
(0.0067569069 6.8205168e-08 6.1020492e-11)
(0.0067568377 6.9747787e-08 2.6540948e-11)
(0.0067568384 -7.1656377e-08 7.2453305e-11)
(0.006756894 -7.3166218e-08 7.7373997e-11)
(0.0083096555 7.1740914e-08 4.5571856e-11)
(0.0083096297 7.4540559e-08 1.3984481e-11)
(0.0083096303 -7.488243e-08 5.0645793e-11)
(0.0083096415 -7.7747815e-08 4.996185e-11)
(0.0096874617 7.0145387e-08 3.2171008e-11)
(0.0096874762 7.4204826e-08 5.875709e-12)
(0.0096874767 -7.2906183e-08 3.3938637e-11)
(0.0096874495 -7.7098552e-08 3.0417892e-11)
(0.011032167 6.4795424e-08 2.1572835e-11)
(0.011032211 6.9820242e-08 9.0299407e-13)
(0.011032212 -6.7166465e-08 2.1710485e-11)
(0.011032158 -7.235777e-08 1.7145393e-11)
(0.012452597 5.7357846e-08 1.37294e-11)
(0.012452658 6.2989112e-08 -1.8745588e-12)
(0.012452658 -5.9350339e-08 1.3135478e-11)
(0.012452591 -6.5161091e-08 8.5002603e-12)
(0.014024824 4.9266503e-08 8.3164244e-12)
(0.014024892 5.5222071e-08 -3.2432286e-12)
(0.014024892 -5.0892219e-08 7.4138374e-12)
(0.014024821 -5.7032302e-08 3.0811542e-12)
(0.015798491 4.152429e-08 4.8534868e-12)
(0.015798558 4.7650666e-08 -3.8976631e-12)
(0.015798557 -4.2790909e-08 3.8161636e-12)
(0.01579849 -4.9103758e-08 -1.8677956e-13)
(0.017804501 3.4703878e-08 2.8395917e-12)
(0.017804562 4.0968745e-08 -4.052546e-12)
(0.017804561 -3.5617054e-08 1.7292765e-12)
(0.017804501 -4.2068045e-08 -2.08027e-12)
(0.020061819 2.9038701e-08 1.8320052e-12)
(0.020061874 3.5498011e-08 -3.9581447e-12)
(0.020061871 -2.9605882e-08 6.6706432e-13)
(0.02006182 -3.6248917e-08 -3.1426456e-12)
(0.022582645 2.4534017e-08 1.4708271e-12)
(0.022582693 3.1297931e-08 -3.737631e-12)
(0.022582689 -2.4766931e-08 2.5407621e-13)
(0.022582647 -3.1707803e-08 -3.7372367e-12)
(0.02537597 2.1063555e-08 1.4787351e-12)
(0.025376012 2.8267096e-08 -3.4663637e-12)
(0.025376007 -2.0978519e-08 2.1956467e-13)
(0.025375972 -2.8345938e-08 -3.9981676e-12)
(0.028449829 1.8440375e-08 1.656686e-12)
(0.028449866 2.6222063e-08 -3.1798298e-12)
(0.02844986 -1.8057256e-08 3.7364828e-13)
(0.028449831 -2.5983985e-08 -4.0360946e-12)
(0.031812591 1.6463273e-08 1.8722796e-12)
(0.031812625 2.495157e-08 -2.9105701e-12)
(0.031812618 -1.5803854e-08 5.9127777e-13)
(0.031812594 -2.4414368e-08 -3.9258704e-12)
(0.03547359 1.4944026e-08 2.0471995e-12)
(0.035473622 2.4249596e-08 -2.6390194e-12)
(0.035473614 -1.4030345e-08 7.9807619e-13)
(0.035473594 -2.3433733e-08 -3.7147587e-12)
(0.039443329 1.372095e-08 2.1425644e-12)
(0.039443361 2.3932825e-08 -2.3626535e-12)
(0.039443352 -1.2574026e-08 9.5476031e-13)
(0.039443334 -2.2860254e-08 -3.4342447e-12)
(0.043733435 1.2663599e-08 2.1480436e-12)
(0.043733468 2.3847517e-08 -2.086586e-12)
(0.043733458 -1.1302662e-08 1.0460089e-12)
(0.043733441 -2.2540626e-08 -3.1085635e-12)
(0.048356476 1.1672134e-08 2.0694243e-12)
(0.048356511 2.387022e-08 -1.8163433e-12)
(0.048356499 -1.011439e-08 1.0720306e-12)
(0.048356483 -2.2350865e-08 -2.7578213e-12)
(0.053325716 1.0674001e-08 1.9235167e-12)
(0.053325753 2.3904886e-08 -1.5568856e-12)
(0.05332574 -8.9347919e-09 1.0419942e-12)
(0.053325725 -2.2193694e-08 -2.399027e-12)
(0.058654857 9.6196186e-09 1.7302271e-12)
(0.058654897 2.3878394e-08 -1.3128573e-12)
(0.058654883 -7.7127864e-09 9.6920209e-13)
(0.058654868 -2.1994429e-08 -2.0464737e-12)
(0.064357782 8.4779852e-09 1.509636e-12)
(0.064357827 2.3735865e-08 -1.0881791e-12)
(0.064357811 -6.4163487e-09 8.6783808e-13)
(0.064357796 -2.1696533e-08 -1.7116088e-12)
(0.070448322 7.2328172e-09 1.2795443e-12)
(0.070448371 2.3436422e-08 -8.8570685e-13)
(0.070448353 -5.028591e-09 7.5096724e-13)
(0.070448339 -2.1257554e-08 -1.4029319e-12)
(0.076940033 5.8793524e-09 1.0543669e-12)
(0.076940085 2.2949695e-08 -7.0711813e-13)
(0.076940066 -3.5444693e-09 6.2945794e-13)
(0.076940052 -2.0645735e-08 -1.1260698e-12)
(0.083845995 4.4218265e-09 8.4455506e-13)
(0.083846052 2.2253161e-08 -5.5293626e-13)
(0.083846031 -1.9681497e-09 5.115688e-13)
(0.083846018 -1.9837411e-08 -8.8401687e-13)
(0.091178632 2.8715469e-09 6.5681376e-13)
(0.091178693 2.1330229e-08 -4.2265679e-13)
(0.091178671 -3.1096856e-10 4.0299386e-13)
(0.091178658 -1.8815111e-08 -6.7750805e-13)
(0.098949531 1.2454044e-09 4.9466944e-13)
(0.098949597 2.0168987e-08 -3.1493108e-13)
(0.098949573 1.4101352e-09 3.0715422e-13)
(0.098949562 -1.7566284e-08 -5.0548023e-13)
(0.10716929 -4.3530367e-10 3.591237e-13)
(0.10716936 1.8761443e-08 -2.2780299e-13)
(0.10716933 3.1738379e-09 2.2562701e-13)
(0.10716932 -1.6082516e-08 -3.6555279e-13)
(0.11584733 -2.1457925e-09 2.4921962e-13)
(0.11584741 1.7103166e-08 -1.5894138e-13)
(0.11584738 4.9553647e-09 1.586003e-13)
(0.11584737 -1.4359127e-08 -2.5448341e-13)
(0.12499181 -3.8586169e-09 1.6284759e-13)
(0.12499189 1.5193192e-08 -1.0583232e-13)
(0.12499186 6.7273116e-09 1.0528429e-13)
(0.12499186 -1.2395047e-08 -1.6855396e-13)
(0.13460942 -5.5444679e-09 9.7168695e-14)
(0.13460951 1.3034139e-08 -6.5965547e-14)
(0.13460948 8.4604122e-09 6.4284287e-14)
(0.13460947 -1.0192903e-08 -1.0392014e-13)
(0.14470529 -7.1729092e-09 4.9011974e-14)
(0.14470538 1.0632456e-08 -3.6947147e-14)
(0.14470535 1.0124247e-08 3.3891338e-14)
(0.14470535 -7.7592388e-09 -5.6823157e-14)
(0.15528285 -8.7131446e-09 1.5198917e-14)
(0.15528294 7.9987649e-09 -1.6588289e-14)
(0.15528291 1.1687984e-08 1.2298044e-14)
(0.15528291 -5.104839e-09 -2.3800344e-14)
(0.16634371 -1.013482e-08 -7.2439099e-15)
(0.16634381 5.1482704e-09 -2.9618692e-15)
(0.16634377 1.3121174e-08 -2.2426871e-15)
(0.16634378 -2.2451131e-09 -1.7573516e-15)
(0.17788759 -1.1408856e-08 -2.0974068e-14)
(0.17788769 2.1012007e-09 5.5756698e-15)
(0.17788765 1.4394585e-08 -1.132146e-14)
(0.17788766 7.9949228e-10 1.1967231e-14)
(0.18991218 -1.2508325e-08 -2.82629e-14)
(0.18991228 -1.1167071e-09 1.0389071e-14)
(0.18991224 1.5481101e-08 -1.6329486e-14)
(0.18991225 4.0030731e-09 1.9590662e-14)
(0.20241309 -1.3409342e-08 -3.0991755e-14)
(0.2024132 -4.4736447e-09 1.2575649e-14)
(0.20241316 1.6356646e-08 -1.8422026e-14)
(0.20241317 7.3336547e-09 2.2913042e-14)
(0.21538381 -1.4091977e-08 -3.0669928e-14)
(0.21538391 -7.931165e-09 1.2998486e-14)
(0.21538387 1.7001132e-08 -1.852273e-14)
(0.21538389 1.0752682e-08 2.3344662e-14)
(0.22881559 -1.4541142e-08 -2.844384e-14)
(0.22881569 -1.1443547e-08 1.2315132e-14)
(0.22881565 1.7399396e-08 -1.7362174e-14)
(0.22881567 1.4214488e-08 2.1956833e-14)
(0.24269748 -1.4747443e-08 -2.5163518e-14)
(0.24269758 -1.4957027e-08 1.1004086e-14)
(0.24269754 1.7542078e-08 -1.5488462e-14)
(0.24269757 1.7665475e-08 1.9545051e-14)
(0.25701628 -1.4707948e-08 -2.1442779e-14)
(0.25701639 -1.8408919e-08 9.4034847e-15)
(0.25701634 1.742639e-08 -1.3293162e-14)
(0.25701637 2.1043245e-08 1.6675419e-14)
(0.27175656 -1.4426813e-08 -1.7697242e-14)
(0.27175667 -2.1726603e-08 7.7424188e-15)
(0.27175662 1.7056714e-08 -1.104251e-14)
(0.27175666 2.427554e-08 1.3727048e-14)
(0.28690068 -1.3915707e-08 -1.4190779e-14)
(0.28690078 -2.4826353e-08 6.1603972e-15)
(0.28690074 1.644493e-08 -8.9094302e-15)
(0.28690078 2.7278972e-08 1.0945266e-14)
(0.30242882 -1.3193915e-08 -1.1064138e-14)
(0.30242891 -2.761204e-08 4.7448624e-15)
(0.30242887 1.561038e-08 -7.0001449e-15)
(0.30242891 2.9957566e-08 8.4602085e-15)
(0.31831905 -1.2288018e-08 -8.386771e-15)
(0.31831915 -2.9973784e-08 3.5327832e-15)
(0.3183191 1.4579311e-08 -5.3556504e-15)
(0.31831914 3.2201179e-08 6.3354763e-15)
(0.33454745 -1.1230953e-08 -6.1680408e-15)
(0.33454753 -3.1786709e-08 2.5294369e-15)
(0.33454749 1.3383661e-08 -3.9821275e-15)
(0.33454753 3.3883966e-08 4.5834951e-15)
(0.35108813 -1.0060312e-08 -4.3820444e-15)