/*--------------------------------*- C++ -*----------------------------------*\
| =========                 |                                                 |
| \\      /  F ield         | OpenFOAM: The Open Source CFD Toolbox           |
|  \\    /   O peration     | Version:  3.0.x                                 |
|   \\  /    A nd           | Web:      www.OpenFOAM.org                      |
|    \\/     M anipulation  |                                                 |
\*---------------------------------------------------------------------------*/
FoamFile
{
    version     2.0;
    format      ascii;
    class       volScalarField;
    location    "350";
    object      sigmazz;
}
// * * * * * * * * * * * * * * * * * * * * * * * * * * * * * * * * * * * * * //

dimensions      [0 2 -2 0 0 0 0];

internalField   nonuniform List<scalar> 
960
(
1.6567453e-09
1.3205138e-10
3.7818939e-11
2.631505e-10
-5.4305349e-10
-3.4997023e-10
1.0253842e-10
4.0867002e-10
-1.3850116e-09
-6.5501912e-10
1.7955896e-10
4.8265114e-10
-1.0153016e-09
-6.1080362e-10
3.9838439e-10
4.1445684e-10
-8.8814864e-10
-6.8790433e-10
5.7404218e-10
5.1431537e-10
-8.1106064e-10
-6.8478032e-10
6.3122398e-10
5.4020547e-10
-7.3256376e-10
-6.7036891e-10
6.2252761e-10
5.496264e-10
-6.3381105e-10
-6.2378125e-10
5.6038931e-10
5.1966054e-10
-5.6358412e-10
-5.7996875e-10
5.1100584e-10
4.8791982e-10
-4.8962446e-10
-5.3384476e-10
4.5270984e-10
4.5311784e-10
-4.240472e-10
-4.7447083e-10
4.0133672e-10
4.0623069e-10
-3.6546978e-10
-4.3731655e-10
3.5666958e-10
3.8286594e-10
-3.3313025e-10
-4.0386895e-10
3.3727739e-10
3.6358051e-10
-3.3188479e-10
-4.0364288e-10
3.4627425e-10
3.7654082e-10
-3.1452707e-10
-3.9800274e-10
3.3577941e-10
3.8212722e-10
-3.4827699e-10
-3.3631583e-10
3.7341213e-10
3.293851e-10
-3.1115718e-10
-3.1908274e-10
3.3770148e-10
3.1879225e-10
-3.0174227e-10
-3.3248512e-10
3.2779392e-10
3.3665487e-10
-3.1081154e-10
-2.5410638e-10
3.3498389e-10
2.6083119e-10
-3.3315529e-10
-4.0926742e-10
3.5457282e-10
4.1699623e-10
-2.5576335e-10
-3.4996287e-10
2.7395332e-10
3.5750758e-10
-3.0038413e-10
-2.9606613e-10
3.1506381e-10
3.0257682e-10
-3.567212e-10
-3.5749104e-10
3.6780774e-10
3.6242381e-10
-3.1464166e-10
-4.2247888e-10
3.222776e-10
4.25552e-10
-2.8580712e-10
-3.7915321e-10
2.9026985e-10
3.8029154e-10
-3.8173132e-10
-4.4832033e-10
3.8337401e-10
4.476011e-10
-2.7003452e-10
-5.1783192e-10
2.6924797e-10
5.154386e-10
-3.9506373e-10
-4.7561638e-10
3.9225076e-10
4.7179493e-10
-4.245931e-10
-5.4271683e-10
4.2014957e-10
5.3774204e-10
-3.5942593e-10
-6.0769618e-10
3.5372575e-10
6.0184589e-10
-3.1147802e-10
-5.5960936e-10
3.0485863e-10
5.5314123e-10
-3.927694e-10
-6.2093595e-10
3.8551751e-10
6.1407197e-10
-3.8247021e-10
-5.7091844e-10
3.7481879e-10
5.6383526e-10
-1.706137e-10
-1.0770397e-09
1.6274402e-10
1.0698625e-09
-2.0179018e-10
-9.2110158e-10
1.9382532e-10
9.139034e-10
-2.5449789e-10
-7.7169484e-10
2.465037e-10
7.6449887e-10
-3.2865806e-10
-6.321619e-10
3.2065184e-10
6.2494617e-10
-4.2357333e-10
-5.0627137e-10
4.1553026e-10
4.9897492e-10
-5.3781157e-10
-3.9814811e-10
5.2967143e-10
3.9067847e-10
4.4045102e-10
-1.4217566e-09
-4.487766e-10
1.4139965e-09
2.9525939e-10
-2.5301879e-10
-3.0387969e-10
2.4483407e-10
1.4027534e-10
-2.253284e-10
-1.4931321e-10
2.1657632e-10
-1.9474644e-11
-2.3385961e-10
9.8897935e-12
2.243948e-10
-1.7811001e-10
-2.8327237e-10
1.6784895e-10
2.729537e-10
-3.2904161e-10
-1.487607e-09
3.1798278e-10
1.4763041e-09
-4.6521063e-10
-5.2235344e-10
4.5324877e-10
5.0995677e-10
5.3012e-10
-7.1988756e-10
-5.43064e-10
7.0631742e-10
-6.6491698e-10
1.3592078e-10
6.5095079e-10
-1.5070395e-10
3.9374486e-10
-1.7599315e-10
-4.0871845e-10
1.6001292e-10
3.8150391e-10
-5.4647567e-10
-3.9739732e-10
5.2938565e-10
4.0938719e-10
-9.7366906e-10
-4.260213e-10
9.5564496e-10
4.753551e-10
-3.4277593e-10
-4.9244357e-10
3.24093e-10
-5.3649598e-10
-8.6246263e-10
5.1935156e-10
8.4349561e-10
-4.1819642e-10
-1.4047021e-09
4.0148747e-10
1.3859015e-09
-2.9516759e-10
-8.3069949e-10
2.7939308e-10
8.1252894e-10
-1.8686871e-10
-1.3178731e-09
1.7238688e-10
1.30064e-09
-1.1293685e-10
-5.7651433e-10
9.9757887e-11
5.602112e-10
-8.6111713e-11
-6.6077547e-10
7.5590613e-11
6.4459095e-10
-8.6753775e-11
-1.276236e-10
6.9740821e-11
1.1102447e-10
-1.0307721e-10
-4.6529282e-10
7.407948e-11
4.4704741e-10
-1.4743704e-10
7.811507e-11
2.5741125e-10
1.4147851e-10
-4.7737973e-10
-4.0882795e-10
4.898891e-10
5.5142408e-10
-5.5598017e-10
-6.3702203e-10
5.2738822e-10
6.8687411e-10
-5.7078738e-10
-6.6860972e-10
5.8967051e-10
6.8996154e-10
-6.0101252e-10
-6.5905123e-10
6.4966029e-10
6.7349286e-10
-5.8773268e-10
-6.0417276e-10
6.3531937e-10
6.1482339e-10
-5.630688e-10
-5.6387456e-10
5.9523635e-10
5.7010817e-10
-5.2276742e-10
-5.1581434e-10
5.377939e-10
5.1635938e-10
-4.7374406e-10
-4.7790815e-10
4.7645567e-10
4.7345871e-10
-4.2562311e-10
-4.350193e-10
4.2342012e-10
4.2798908e-10
-3.9423137e-10
-4.0721848e-10
3.9267451e-10
4.0017422e-10
-3.5764594e-10
-3.9336058e-10
3.591655e-10
3.8806935e-10
-3.4581374e-10
-3.721352e-10
3.5134871e-10
3.6945771e-10
-3.290448e-10
-2.7151569e-10
3.3871929e-10
2.7172095e-10
-3.1547837e-10
-2.741357e-10
3.2865427e-10
2.770393e-10
-3.5103823e-10
-3.2938444e-10
3.6658132e-10
3.3431527e-10
-3.144909e-10
-4.2716371e-10
3.3113101e-10
4.3321408e-10
-3.0496512e-10
-3.322037e-10
3.2152456e-10
3.3848492e-10
-3.1362354e-10
-3.6632829e-10
3.2911628e-10
3.7206793e-10
-3.354894e-10
-3.0041913e-10
3.4911327e-10
3.0500082e-10
-3.6863271e-10
-3.5246335e-10
3.7980643e-10
3.5544719e-10
-3.0197171e-10
-4.0963301e-10
3.1042574e-10
4.1075469e-10
-3.5807464e-10
-3.6003921e-10
3.6374332e-10
3.5918446e-10
-3.1584263e-10
-4.2486415e-10
3.187667e-10
4.2204193e-10
-2.8692745e-10
-3.8131953e-10
2.8726334e-10
3.7664378e-10
-3.828218e-10
-4.5023684e-10
3.8082662e-10
4.4390263e-10
-3.8207638e-10
-5.1948148e-10
3.7807747e-10
5.1173888e-10
-3.9615132e-10
-4.7698712e-10
3.905134e-10
4.6812177e-10
-4.2568185e-10
-5.4380039e-10
4.1877547e-10
5.341065e-10
-3.6051828e-10
-4.9753182e-10
3.526937e-10
4.8729189e-10
-3.1258061e-10
-4.49151e-10
3.0415057e-10
4.3862161e-10
-3.9389157e-10
-5.1018409e-10
3.8511991e-10
4.9958274e-10
-3.8362405e-10
-5.708318e-10
3.7471624e-10
5.6033062e-10
-1.7181369e-10
-1.0766654e-09
1.6291313e-10
1.0663864e-09
-1.3126121e-09
-9.2044548e-10
1.3038038e-09
9.1045913e-10
-2.5583685e-10
-7.7076603e-10
2.4715141e-10
7.6109429e-10
-3.3008852e-10
-6.3097257e-10
3.2150607e-10
6.2159236e-10
-4.2510729e-10
-5.0483811e-10
4.1656458e-10
4.9568648e-10
-5.394571e-10
-3.9649238e-10
5.3085579e-10
3.8747297e-10
4.386908e-10
-3.1034526e-10
-4.4747636e-10
3.0133409e-10
2.9338794e-10
-2.5100474e-10
-3.0250227e-10
2.4185747e-10
1.3830373e-10
-2.2319069e-10
-1.4790242e-10
2.1374983e-10
-2.1526411e-11
-2.3164435e-10
1.1284032e-11
2.217446e-10
-1.8021142e-10
-2.8103276e-10
1.6917022e-10
2.7050741e-10
-3.3115019e-10
-1.4854033e-09
3.1916748e-10
1.4740905e-09
-4.6727038e-10
-5.202538e-10
4.5422539e-10
5.0800671e-10
5.2817969e-10
-7.1796648e-10
-5.4237447e-10
7.0466299e-10
-6.6665128e-10
1.3758262e-10
6.5126748e-10
-1.5202931e-10
3.9231844e-10
-1.7467729e-10
-4.0886498e-10
1.5905269e-10
3.8050077e-10
-5.4559524e-10
-3.9809776e-10
5.2882839e-10
4.0893134e-10
-9.733174e-10
-4.2735991e-10
9.5552765e-10
4.7556936e-10
-3.4304817e-10
-4.9448943e-10
3.244469e-10
-5.3550604e-10
-8.6345081e-10
5.1655392e-10
8.4433126e-10
-4.1636666e-10
-2.9693552e-10
3.9792199e-10
2.776253e-10
-2.9250058e-10
-8.3340007e-10
2.7507929e-10
8.1415632e-10
-1.8345089e-10
-2.1194428e-10
1.6734232e-10
1.9277535e-10
-1.0893278e-10
-5.808913e-10
9.3979282e-11
5.610676e-10
-8.2035077e-11
-6.6388961e-10
6.7515516e-11
6.4228065e-10
-8.7083542e-11
-1.3293481e-10
6.7733852e-11
1.1492748e-10
-1.1072505e-10
-4.7350439e-10
8.5079456e-11
4.6534585e-10
2.4010968e-10
1.1768573e-10
3.0834563e-10
2.4714508e-10
1.2670594e-10
-1.9906488e-10
3.8120875e-10
5.4808914e-10
4.1268905e-11
-4.2907513e-10
3.5372446e-10
6.940295e-10
-2.4199537e-10
-4.0972063e-10
5.3382719e-10
6.2547862e-10
-4.9827809e-10
-5.103293e-10
6.7980979e-10
6.7996983e-10
-6.0290366e-10
-5.4618973e-10
6.8973442e-10
6.6831881e-10
-6.3678715e-10
-5.667525e-10
6.5564565e-10
6.4483724e-10
-6.0445211e-10
-5.4802499e-10
5.8121191e-10
5.892187e-10
-5.5485413e-10
-5.2510695e-10
5.1104215e-10
5.3842854e-10
-4.8379216e-10
-4.9448455e-10
4.3476728e-10
4.8948764e-10
-4.3399481e-10
-4.4661885e-10
3.9007977e-10
4.3203874e-10
-3.8641191e-10
-4.1801219e-10
3.536767e-10
4.0075395e-10
-3.5242353e-10
-3.9089206e-10
3.3259345e-10
3.7557873e-10
-3.4896566e-10
-3.9527935e-10
3.4085257e-10
3.8426631e-10
-3.2907487e-10
-3.9292073e-10
3.3025849e-10
3.8680153e-10
-3.6039327e-10
-3.3349898e-10
3.6814763e-10
3.3191528e-10
-3.2107999e-10
-3.1777476e-10
3.3290286e-10
3.1988483e-10
-3.0975969e-10
-3.3213816e-10
3.2356906e-10
3.3683443e-10
-3.1721864e-10
-2.5433384e-10
3.3138103e-10
2.6047087e-10
-3.382225e-10
-4.0980634e-10
3.5157684e-10
4.1635168e-10
-2.5973214e-10
-3.5064225e-10
2.7147667e-10
3.5674335e-10
-3.0346757e-10
-2.9677961e-10
3.1302264e-10
3.017941e-10
-3.5909985e-10
-3.5817566e-10
3.6615774e-10
3.6168313e-10
-3.1646459e-10
-4.2310028e-10
3.2097087e-10
4.2488488e-10
-2.871966e-10
-3.796967e-10
2.8924744e-10
3.7970983e-10
-3.8278564e-10
-4.4878364e-10
3.825805e-10
4.4710615e-10
-2.7083113e-10
-5.1821962e-10
2.6863604e-10
5.1502561e-10
-3.9566358e-10
-4.7593617e-10
3.9178122e-10
4.7145477e-10
-4.2504305e-10
-5.4297666e-10
4.1979084e-10
5.3746589e-10
-3.597622e-10
-6.0790493e-10
3.534528e-10
6.0162415e-10
-3.1172894e-10
-5.5977603e-10
3.0465201e-10
5.5296428e-10
-3.929563e-10
-6.2106786e-10
3.8536155e-10
6.13932e-10
-3.8260919e-10
-5.7102249e-10
3.747008e-10
5.6372541e-10
-1.7071697e-10
-1.0771211e-09
1.6265482e-10
1.0697765e-09
-2.0186678e-10
-9.2116458e-10
1.9375827e-10
9.1383651e-10
-2.5455474e-10
-7.717437e-10
2.4645331e-10
7.6444739e-10
-3.287003e-10
-6.3219952e-10
3.2061405e-10
6.2490664e-10
-4.2360471e-10
-5.0630015e-10
4.1550192e-10
4.9894465e-10
-5.378349e-10
-3.9817007e-10
5.2965018e-10
3.9065546e-10
4.4043367e-10
-1.4217734e-09
-4.4879254e-10
1.4139792e-09
2.9524644e-10
-2.530314e-10
-3.0389167e-10
2.4482093e-10
1.4026563e-10
-2.2533787e-10
-1.4932216e-10
2.1656643e-10
-1.9481898e-11
-2.338668e-10
9.8830578e-12
2.2438737e-10
-1.7811543e-10
-2.8327793e-10
1.6784387e-10
2.7294792e-10
-3.2904571e-10
-1.4876109e-09
3.1797898e-10
1.4763001e-09
-4.6521375e-10
-5.2235599e-10
4.532459e-10
5.0995374e-10
5.301176e-10
-7.1989009e-10
-5.4306617e-10
7.0631528e-10
-6.6491877e-10
1.35919e-10
6.5094916e-10
-1.5070529e-10
3.9374353e-10
-1.7599422e-10
-4.0871967e-10
1.6001138e-10
3.8150286e-10
-5.4647657e-10
-3.9739827e-10
5.2938473e-10
4.0938634e-10
-9.7366982e-10
-4.2602199e-10
9.5564419e-10
4.7535447e-10
-3.4277659e-10
-4.9244405e-10
3.2409274e-10
-5.364965e-10
-8.6246235e-10
5.1935116e-10
8.4349586e-10
-4.1819685e-10
-1.4047022e-09
4.0148717e-10
1.3859009e-09
-2.9516792e-10
-8.307e-10
2.7939285e-10
8.1252839e-10
-1.8686895e-10
-1.317873e-09
1.7238669e-10
1.3006399e-09
-1.1293707e-10
-5.7651428e-10
9.9757761e-11
5.6021111e-10
-8.6111867e-11
-6.6077544e-10
7.5590523e-11
6.4459087e-10
-8.675386e-11
-1.2762358e-10
6.9740753e-11
1.1102447e-10
-1.030773e-10
-4.6529283e-10
7.4079484e-11
4.4704747e-10
-1.4075105e-10
7.4694647e-11
2.5632302e-10
1.2839712e-10
-4.7617908e-10
-4.1127426e-10
4.8498388e-10
5.4187094e-10
-5.4982478e-10
-6.3892238e-10
5.2217352e-10
6.7974712e-10
-5.5678804e-10
-6.7931242e-10
5.8634073e-10
6.9528537e-10
-5.9824196e-10
-6.5728882e-10
6.5849289e-10
6.6817405e-10
-5.7719119e-10
-6.0206825e-10
6.3384319e-10
6.1039933e-10
-5.5543439e-10
-5.6134898e-10
5.9440994e-10
5.6679687e-10
-5.170682e-10
-5.2403407e-10
5.374116e-10
5.2517813e-10
-4.6958711e-10
-4.7512472e-10
4.7629238e-10
4.7195382e-10
-4.2301617e-10
-4.3259401e-10
4.2334996e-10
4.2699713e-10
-3.9248497e-10
-4.0521735e-10
3.9275682e-10
3.9952122e-10
-3.5612959e-10
-3.9176884e-10
3.5938808e-10
3.8767573e-10
-3.4466494e-10
-3.7091901e-10
3.515639e-10
3.6924136e-10
-3.2824138e-10
-2.706153e-10
3.3889277e-10
2.7157582e-10
-3.1482981e-10
-2.7348173e-10
3.2884873e-10
2.7692682e-10
-3.5047951e-10
-3.2891721e-10
3.6679676e-10
3.342354e-10
-3.1399256e-10
-4.268359e-10
3.3135951e-10
4.3314087e-10
-3.0451454e-10
-3.3197836e-10
3.2175904e-10
3.3841002e-10
-3.1321334e-10
-3.6617791e-10
3.2934627e-10
3.7199123e-10
-3.351157e-10
-3.0032204e-10
3.4932376e-10
3.0492254e-10
-3.6829519e-10
-3.5240417e-10
3.8000102e-10
3.5536961e-10
-3.0166969e-10
-4.0960114e-10
3.1061566e-10
4.1067979e-10
-3.57807e-10
-3.6002595e-10
3.6392184e-10
3.5911321e-10
-3.1560849e-10
-4.2486336e-10
3.1892446e-10
4.2197495e-10
-2.8672506e-10
-3.8132734e-10
2.8740161e-10
3.7658137e-10
-3.8264883e-10
-4.5025017e-10
3.8094661e-10
4.438461e-10
-3.8193012e-10
-5.1949693e-10
3.7818029e-10
5.1168842e-10
-3.9602881e-10
-4.7700397e-10
3.9060043e-10
4.6807649e-10
-4.2558053e-10
-5.4381734e-10
4.1884814e-10
5.3406673e-10
-3.6043558e-10
-4.9754782e-10
3.5275375e-10
4.8725785e-10
-3.1251372e-10
-4.4916561e-10
3.0419951e-10
4.3859265e-10
-3.9383795e-10
-5.1019655e-10
3.8515931e-10
4.9955862e-10
-3.8358149e-10
-5.7084274e-10
3.7474785e-10
5.6031071e-10
-1.7178022e-10
-1.0766752e-09
1.6293835e-10
1.0663698e-09
-1.3125859e-09
-9.2045373e-10
1.3038235e-09
9.1044568e-10
-2.5581667e-10
-7.7077276e-10
2.471667e-10
7.6108353e-10
-3.3007311e-10
-6.3097809e-10
3.2151784e-10
6.2158379e-10
-4.2509556e-10
-5.0484251e-10
4.1657357e-10
4.9567974e-10
-5.3944829e-10
-3.9649587e-10
5.3086258e-10
3.8746774e-10
4.386974e-10
-3.1034796e-10
-4.4747124e-10
3.0133006e-10
2.9339283e-10
-2.5100682e-10
-3.0249849e-10
2.4185441e-10
1.3830725e-10
-2.2319232e-10
-1.4789973e-10
2.1374759e-10
-2.1523916e-11
-2.3164557e-10
1.1286011e-11
2.2174296e-10
-1.8020965e-10
-2.8103375e-10
1.6917165e-10
2.705059e-10
-3.3114889e-10
-1.4854039e-09
3.1916845e-10
1.4740896e-09
-4.6726959e-10
-5.2025401e-10
4.5422605e-10
5.0800645e-10
5.2818018e-10
-7.1796707e-10
-5.4237397e-10
7.0466284e-10
-6.6665094e-10
1.375821e-10
6.5126777e-10
-1.5202983e-10
3.9231864e-10
-1.746769e-10
-4.0886484e-10
1.5905223e-10
3.8050087e-10
-5.4559524e-10
-3.9809766e-10
5.2882839e-10
4.0893137e-10
-9.7331783e-10
-4.2735987e-10
9.5552765e-10
4.7556938e-10
-3.4304816e-10
-4.9448941e-10
3.2444689e-10
-5.3550606e-10
-8.634508e-10
5.1655389e-10
8.4433127e-10
-4.163667e-10
-2.9693552e-10
3.9792195e-10
2.7762534e-10
-2.9250063e-10
-8.3340006e-10
2.7507925e-10
8.1415636e-10
-1.8345097e-10
-2.1194432e-10
1.673423e-10
1.927754e-10
-1.0893286e-10
-5.8089131e-10
9.397926e-11
5.6106757e-10
-8.2035134e-11
-6.6388955e-10
6.7515462e-11
6.4228068e-10
-8.70836e-11
-1.3293477e-10
6.7733814e-11
1.1492755e-10
-1.1072509e-10
-4.7350436e-10
8.5079403e-11
4.6534589e-10
)
;

boundaryField
{
    movingWall
    {
        type            calculated;
        value           nonuniform List<scalar> 
16
(
-1.1800135e-10
-1.2873196e-10
-1.1800145e-10
-1.2873201e-10
-1.6807572e-10
-1.7543069e-10
-1.6807573e-10
-1.7543065e-10
8.5574015e-11
1.0158339e-10
8.5574046e-11
1.0158335e-10
1.4829776e-10
1.7238394e-10
1.4829784e-10
1.7238398e-10
)
;
    }
    CPLReceiveMD
    {
        type            calculated;
        value           nonuniform List<scalar> 
16
(
1.6467826e-09
-1.0063653e-09
-7.213959e-10
-9.9467161e-10
-6.9031562e-10
-7.3105578e-10
-7.2251332e-10
-7.3378065e-10
9.9861452e-10
1.1498009e-09
1.2891631e-09
1.1500977e-09
1.1485595e-09
9.5628567e-10
1.1200913e-09
9.431361e-10
)
;
    }
    streamwiseIn
    {
        type            cyclic;
    }
    streamwiseOut
    {
        type            cyclic;
    }
    front
    {
        type            cyclic;
    }
    back
    {
        type            cyclic;
    }
}


// ************************************************************************* //
