/*--------------------------------*- C++ -*----------------------------------*\
| =========                 |                                                 |
| \\      /  F ield         | OpenFOAM: The Open Source CFD Toolbox           |
|  \\    /   O peration     | Version:  3.0.x                                 |
|   \\  /    A nd           | Web:      www.OpenFOAM.org                      |
|    \\/     M anipulation  |                                                 |
\*---------------------------------------------------------------------------*/
FoamFile
{
    version     2.0;
    format      ascii;
    class       volScalarField;
    location    "350";
    object      sigmayz;
}
// * * * * * * * * * * * * * * * * * * * * * * * * * * * * * * * * * * * * * //

dimensions      [0 2 -2 0 0 0 0];

internalField   nonuniform List<scalar> 
960
(
2.3161842e-11
-5.9688738e-12
-7.1678501e-12
-2.0824896e-11
-5.2709601e-12
5.988052e-12
1.7904519e-12
6.4263651e-12
-1.0364434e-11
3.4560591e-12
2.6383048e-12
5.388107e-12
-1.0102831e-11
1.5242204e-12
2.2643822e-12
4.9727391e-12
-7.8480616e-12
4.5014708e-13
1.6676173e-12
4.3703288e-12
-5.7460114e-12
-6.0106044e-13
1.0873206e-12
3.3051287e-12
-4.0974861e-12
-1.4168845e-12
6.5911904e-13
2.2230636e-12
-2.8451255e-12
-1.7110692e-12
4.0331555e-13
1.3965292e-12
-1.7476962e-12
-1.6561223e-12
2.6183418e-13
8.4304174e-13
-1.0486154e-12
-1.4461364e-12
1.540748e-13
4.807621e-13
-8.058573e-13
-1.1888943e-12
7.0989012e-14
2.4305216e-13
-5.1877159e-13
-9.2954146e-13
7.3033895e-14
9.1364506e-14
-2.6954952e-13
-7.0225827e-13
9.4184381e-14
2.4706216e-14
-1.7621883e-13
-5.2129139e-13
6.4354398e-14
-1.5200723e-16
-1.3815015e-13
-3.8260062e-13
3.1827567e-14
-2.0422664e-14
-1.2597206e-13
-2.7841062e-13
3.7739918e-15
-1.9843871e-14
-1.2453334e-13
-2.0103713e-13
-1.85175e-14
-1.2241733e-14
-1.2720234e-13
-1.441877e-13
-3.5505075e-14
-4.3374967e-15
-1.3031885e-13
-1.0231318e-13
-4.6469889e-14
3.1506717e-15
-1.3068162e-13
-7.1659639e-14
-5.620852e-14
9.3199169e-15
-1.2792765e-13
-4.8766225e-14
-6.897729e-14
1.3919545e-14
-1.2245096e-13
-3.1968203e-14
-7.4889508e-14
1.7628108e-14
-1.1441236e-13
-1.934502e-14
-7.173623e-14
2.0298756e-14
-1.0459591e-13
-1.0189324e-14
-6.740907e-14
2.1980516e-14
-9.3913301e-14
-3.4902154e-15
-6.2122232e-14
2.2525678e-14
-8.276457e-14
8.6906617e-16
-5.5956155e-14
2.2165465e-14
-7.1795593e-14
3.7948318e-15
-4.9385619e-14
2.1317999e-14
-6.1234513e-14
5.6511056e-15
-4.2744028e-14
1.9903925e-14
-5.1343479e-14
6.4144558e-15
-3.6411261e-14
1.8008363e-14
-4.2528655e-14
6.7025402e-15
-3.0550698e-14
1.6035171e-14
-3.4840672e-14
6.4505597e-15
-2.5266775e-14
1.4041169e-14
-2.8222066e-14
6.0600888e-15
-2.0760128e-14
1.2070374e-14
-2.2621022e-14
5.5921403e-15
-1.6898664e-14
1.0319586e-14
-1.7969573e-14
4.9271834e-15
-1.3515961e-14
8.6463367e-15
-1.4145703e-14
4.1901559e-15
-1.0668385e-14
7.1295757e-15
-1.1026761e-14
3.5497913e-15
-8.3609467e-15
5.8219188e-15
-8.5255811e-15
2.9342795e-15
-6.4891219e-15
4.687289e-15
-6.5479813e-15
2.4015746e-15
-4.9871463e-15
3.7234385e-15
-4.9652464e-15
1.9357118e-15
-3.7916851e-15
2.9266922e-15
-3.750826e-15
1.5394086e-15
-2.8547907e-15
2.2682131e-15
-2.7762073e-15
1.2212897e-15
-2.106805e-15
1.7309657e-15
-2.0437183e-15
9.5261767e-16
-1.5649169e-15
1.3038366e-15
-1.4772088e-15
7.2477844e-16
-1.1591493e-15
9.8857954e-16
-1.0628882e-15
5.5161981e-16
-8.3796738e-16
7.2789039e-16
-7.3395256e-16
3.6261043e-16
-6.0548609e-16
4.302858e-16
-4.8234121e-16
3.0598272e-16
-4.3447458e-16
3.568926e-16
-3.5366133e-16
2.6728503e-16
-3.0021373e-16
2.996376e-16
-2.3471814e-16
7.2319423e-17
-1.7964171e-16
2.5472995e-16
-1.6274328e-16
4.8586158e-17
-1.247324e-16
5.7512654e-17
-9.9240815e-17
1.9981363e-16
-7.0572826e-17
3.3703528e-17
-6.2616065e-17
2.1000897e-17
-3.4035934e-17
1.7101401e-17
-2.9987651e-17
6.8586101e-18
-2.2904471e-18
1.0854573e-17
-1.5661518e-18
4.8545239e-19
-2.9145545e-18
1.1615875e-17
3.0896077e-18
1.8035431e-18
-3.5249869e-18
9.3165963e-18
1.2654261e-17
3.1114889e-18
-2.3780796e-18
3.1771874e-18
1.2488909e-17
1.3271218e-18
-6.1461983e-19
2.5612776e-18
3.3567314e-18
-1.9172342e-17
8.9125943e-18
2.0363196e-18
4.397846e-18
-1.9152019e-17
1.0482982e-17
-1.811185e-17
1.4252618e-17
-3.5080511e-18
3.4419529e-18
-6.5753706e-18
7.8861206e-17
-1.8061346e-17
5.0032436e-17
-5.4141982e-17
-9.2050575e-10
-2.4333228e-10
-1.1120712e-10
-2.1868286e-10
6.875806e-10
-3.1804943e-11
-1.8149575e-11
-3.9696726e-11
5.6647521e-10
6.3560871e-11
2.739648e-11
5.5401546e-11
3.9207537e-10
9.6927266e-11
4.3308668e-11
8.8205566e-11
2.493325e-10
9.4272774e-11
4.1494124e-11
8.6251356e-11
1.384289e-10
7.7180973e-11
3.2334124e-11
7.0687863e-11
6.5602487e-11
5.8207521e-11
2.2006667e-11
5.3440609e-11
2.4173059e-11
4.2266758e-11
1.3200613e-11
3.894854e-11
2.551016e-12
3.0136211e-11
6.7388931e-12
2.7888157e-11
-7.4659533e-12
2.1285256e-11
2.5263484e-12
1.9783409e-11
-1.0914942e-11
1.4921215e-11
-1.3371117e-13
1.3930702e-11
-1.143552e-11
1.0336437e-11
-1.724091e-12
9.6967777e-12
-1.0669341e-11
7.0261877e-12
-2.5188965e-12
6.6374429e-12
-9.2705705e-12
4.6423945e-12
-2.8063508e-12
4.4138515e-12
-7.7840549e-12
2.9409501e-12
-2.8165725e-12
2.7895006e-12
-6.4056674e-12
1.7459131e-12
-2.659723e-12
1.6360436e-12
-5.2001786e-12
9.2745605e-13
-2.407453e-12
8.4365744e-13
-4.1795856e-12
3.8642623e-13
-2.1128116e-12
3.2066207e-13
-3.3281388e-12
4.5594406e-14
-1.8109646e-12
-6.7801454e-15
-2.6265037e-12
-1.5502115e-13
-1.5380319e-12
-1.9759731e-13
-2.0566013e-12
-2.6066239e-13
-1.2958321e-12
-2.961247e-13
-1.5989048e-12
-3.0352427e-13
-1.0649471e-12
-3.3329757e-13
-1.2346362e-12
-3.0729897e-13
-8.5392516e-13
-3.3248915e-13
-9.4760695e-13
-2.8857524e-13
-6.7486567e-13
-3.1017937e-13
-7.2352608e-13
-2.587736e-13
-5.2824989e-13
-2.7723096e-13
-5.4960255e-13
-2.2468128e-13
-4.1026689e-13
-2.4014086e-13
-4.1552999e-13
-1.9060114e-13
-3.1658448e-13
-2.0350065e-13
-3.127596e-13
-1.5863401e-13
-2.4291956e-13
-1.6932151e-13
-2.3438085e-13
-1.3011827e-13
-1.8544124e-13
-1.3877163e-13
-1.7518532e-13
-1.0560329e-13
-1.4095729e-13
-1.1259698e-13
-1.3062799e-13
-8.4910629e-14
-1.0679183e-13
-9.0426725e-14
-9.7171696e-14
-6.7639924e-14
-8.0958182e-14
-7.1986882e-14
-7.2173576e-14
-5.3580671e-14
-6.1312319e-14
-5.6889053e-14
-5.3522343e-14
-4.195913e-14
-4.6128691e-14
-4.4677164e-14
-3.9654956e-14
-3.2800921e-14
-3.4648572e-14
-3.4768475e-14
-2.9393334e-14
-2.5465404e-14
-2.5993005e-14
-2.693538e-14
-2.1764841e-14
-1.9664642e-14
-1.9480747e-14
-2.0765526e-14
-1.6127476e-14
-1.5110059e-14
-1.4605275e-14
-1.5923512e-14
-1.1947464e-14
-1.1577881e-14
-1.0946511e-14
-1.2136028e-14
-8.8759986e-15
-8.817489e-15
-8.2109136e-15
-9.2248068e-15
-6.5908878e-15
-6.6872725e-15
-6.1583588e-15
-6.9862344e-15
-4.911907e-15
-5.0695989e-15
-4.6241766e-15
-5.2546507e-15
-3.6486872e-15
-3.8190875e-15
-3.4937856e-15
-3.9404105e-15
-2.7438321e-15
-2.8489296e-15
-2.6190586e-15
-2.9299393e-15
-2.0548417e-15
-2.0584426e-15
-1.9839204e-15
-2.0892336e-15
-1.5525004e-15
-1.6204958e-15
-1.4934328e-15
-1.6411759e-15
-1.1651528e-15
-1.247649e-15
-1.1294129e-15
-1.0974791e-15
-8.7425945e-16
-7.629164e-16
-8.4072605e-16
-9.3853628e-16
-6.6996505e-16
-6.5156449e-16
-6.3373633e-16
-6.5094962e-16
-5.2444597e-16
-4.0146722e-16
-4.7210037e-16
-3.9702928e-16
-3.943597e-16
-3.4615012e-16
-3.4301271e-16
-3.3060216e-16
-2.9709737e-16
-1.3341114e-16
-2.6392776e-16
-1.1532199e-16
-2.320455e-16
-9.2651928e-17
-1.9840615e-16
-2.512729e-16
-1.706021e-16
-2.3469101e-16
-1.4273986e-16
-2.3077897e-16
-1.2207977e-16
-5.4625107e-17
-1.1142048e-16
-4.8202539e-17
-1.0486718e-16
-4.5187781e-17
-7.2739384e-17
-3.7035467e-17
-8.2896384e-17
-5.3801967e-17
-4.9671e-17
-3.1902219e-17
-6.1736761e-17
-4.7237695e-17
-4.1696773e-17
-1.3936393e-17
-6.6037064e-17
-2.7191242e-17
-2.4017429e-17
-1.3186014e-17
-9.3052071e-17
5.0546088e-17
-2.2069611e-17
5.3033407e-19
-2.3161842e-11
5.9688738e-12
7.1678501e-12
2.0824896e-11
5.2709601e-12
-5.988052e-12
-1.7904519e-12
-6.4263651e-12
1.0364434e-11
-3.4560591e-12
-2.6383048e-12
-5.388107e-12
1.0102831e-11
-1.5242204e-12
-2.2643822e-12
-4.9727391e-12
7.8480616e-12
-4.5014708e-13
-1.6676173e-12
-4.3703288e-12
5.7460114e-12
6.0106044e-13
-1.0873206e-12
-3.3051287e-12
4.0974861e-12
1.4168845e-12
-6.5911904e-13
-2.2230636e-12
2.8451255e-12
1.7110692e-12
-4.0331555e-13
-1.3965292e-12
1.7476962e-12
1.6561223e-12
-2.6183418e-13
-8.4304174e-13
1.0486154e-12
1.4461364e-12
-1.540748e-13
-4.8076209e-13
8.058573e-13
1.1888943e-12
-7.0989013e-14
-2.4305215e-13
5.1877159e-13
9.2954146e-13
-7.3033888e-14
-9.1364512e-14
2.6954952e-13
7.0225827e-13
-9.4184381e-14
-2.4706223e-14
1.7621883e-13
5.2129139e-13
-6.4354404e-14
1.5200723e-16
1.3815015e-13
3.8260062e-13
-3.1827567e-14
2.0422664e-14
1.2597206e-13
2.7841062e-13
-3.7739918e-15
1.9843871e-14
1.2453334e-13
2.0103713e-13
1.85175e-14
1.2241733e-14
1.2720234e-13
1.441877e-13
3.5505075e-14
4.3374967e-15
1.3031885e-13
1.0231318e-13
4.6469883e-14
-3.1506717e-15
1.3068162e-13
7.1659638e-14
5.620852e-14
-9.3199169e-15
1.2792765e-13
4.8766225e-14
6.8977296e-14
-1.3919545e-14
1.2245096e-13
3.1968203e-14
7.4889508e-14
-1.7628108e-14
1.1441236e-13
1.934502e-14
7.173623e-14
-2.0298756e-14
1.0459591e-13
1.0189323e-14
6.740907e-14
-2.1980517e-14
9.3913301e-14
3.4902147e-15
6.2122232e-14
-2.2525678e-14
8.276457e-14
-8.690655e-16
5.5956155e-14
-2.2165464e-14
7.1795593e-14
-3.7948312e-15
4.9385619e-14
-2.1317999e-14
6.1234512e-14
-5.6511063e-15
4.2744028e-14
-1.9903925e-14
5.1343479e-14
-6.4144558e-15
3.6411261e-14
-1.8008363e-14
4.2528655e-14
-6.7025396e-15
3.0550698e-14
-1.6035171e-14
3.4840672e-14
-6.4505597e-15
2.5266775e-14
-1.404117e-14
2.8222066e-14
-6.0600888e-15
2.0760128e-14
-1.2070374e-14
2.2621022e-14
-5.5921404e-15
1.6898664e-14
-1.0319586e-14
1.7969574e-14
-4.9271834e-15
1.3515961e-14
-8.6463361e-15
1.4145704e-14
-4.1901558e-15
1.0668385e-14
-7.1295758e-15
1.1026761e-14
-3.5497913e-15
8.3609467e-15
-5.8219189e-15
8.525581e-15
-2.9342795e-15
6.4891219e-15
-4.6872889e-15
6.5479813e-15
-2.4015746e-15
4.9871462e-15
-3.7234385e-15
4.9652465e-15
-1.9357118e-15
3.7916851e-15
-2.9266922e-15
3.7508259e-15
-1.5394086e-15
2.8547907e-15
-2.2682131e-15
2.7762072e-15
-1.2212897e-15
2.106805e-15
-1.7309657e-15
2.0437184e-15
-9.5261768e-16
1.5649169e-15
-1.3038366e-15
1.4772088e-15
-7.2477845e-16
1.1591493e-15
-9.8857956e-16
1.0628882e-15
-5.516198e-16
8.3796737e-16
-7.2789039e-16
7.3395257e-16
-3.6261042e-16
6.054861e-16
-4.3028579e-16
4.8234121e-16
-3.0598271e-16
4.3447458e-16
-3.5689261e-16
3.5366133e-16
-2.6728503e-16
3.0021374e-16
-2.996376e-16
2.3471815e-16
-7.2319425e-17
1.7964171e-16
-2.5472994e-16
1.6274328e-16
-4.8586156e-17
1.247324e-16
-5.7512652e-17
9.9240816e-17
-1.9981363e-16
7.0572827e-17
-3.3703528e-17
6.2616066e-17
-2.1000897e-17
3.4035934e-17
-1.7101399e-17
2.9987652e-17
-6.8586102e-18
2.2904479e-18
-1.0854572e-17
1.5661517e-18
-4.8545062e-19
2.9145545e-18
-1.1615873e-17
-3.0896072e-18
-1.8035425e-18
3.5249862e-18
-9.3165956e-18
-1.2654261e-17
-3.11149e-18
2.378079e-18
-3.1771874e-18
-1.2488909e-17
-1.3271223e-18
6.1462112e-19
-2.5612763e-18
-3.3567301e-18
1.9172342e-17
-8.9125936e-18
-2.0363196e-18
-4.397844e-18
1.915202e-17
-1.0482982e-17
1.811185e-17
-1.4252617e-17
3.5080518e-18
-3.4419522e-18
6.5753712e-18
-7.8861206e-17
1.8061348e-17
-5.0032436e-17
5.4141983e-17
9.2050575e-10
2.4333228e-10
1.1120712e-10
2.1868286e-10
-6.875806e-10
3.1804943e-11
1.8149575e-11
3.9696726e-11
-5.6647521e-10
-6.3560871e-11
-2.739648e-11
-5.5401546e-11
-3.9207537e-10
-9.6927266e-11
-4.3308668e-11
-8.8205566e-11
-2.493325e-10
-9.4272774e-11
-4.1494124e-11
-8.6251356e-11
-1.384289e-10
-7.7180973e-11
-3.2334124e-11
-7.0687863e-11
-6.5602487e-11
-5.8207521e-11
-2.2006667e-11
-5.3440609e-11
-2.4173059e-11
-4.2266758e-11
-1.3200613e-11
-3.894854e-11
-2.551016e-12
-3.0136211e-11
-6.7388931e-12
-2.7888157e-11
7.4659533e-12
-2.1285256e-11
-2.5263484e-12
-1.9783409e-11
1.0914942e-11
-1.4921215e-11
1.3371117e-13
-1.3930702e-11
1.143552e-11
-1.0336437e-11
1.724091e-12
-9.6967777e-12
1.0669341e-11
-7.0261877e-12
2.5188965e-12
-6.6374429e-12
9.2705705e-12
-4.6423945e-12
2.8063508e-12
-4.4138515e-12
7.7840549e-12
-2.9409501e-12
2.8165724e-12
-2.7895006e-12
6.4056674e-12
-1.7459131e-12
2.659723e-12
-1.6360436e-12
5.2001786e-12
-9.2745605e-13
2.407453e-12
-8.4365744e-13
4.1795856e-12
-3.8642623e-13
2.1128116e-12
-3.2066207e-13
3.3281388e-12
-4.5594406e-14
1.8109646e-12
6.7801454e-15
2.6265037e-12
1.5502115e-13
1.5380319e-12
1.9759731e-13
2.0566013e-12
2.6066239e-13
1.2958321e-12
2.961247e-13
1.5989048e-12
3.0352427e-13
1.0649471e-12
3.3329757e-13
1.2346362e-12
3.0729897e-13
8.5392516e-13
3.3248915e-13
9.4760695e-13
2.8857524e-13
6.7486567e-13
3.1017937e-13
7.2352608e-13
2.587736e-13
5.2824989e-13
2.7723096e-13
5.4960255e-13
2.2468128e-13
4.1026689e-13
2.4014086e-13
4.1552999e-13
1.9060114e-13
3.1658449e-13
2.0350065e-13
3.127596e-13
1.5863401e-13
2.4291956e-13
1.6932151e-13
2.3438085e-13
1.3011827e-13
1.8544124e-13
1.3877163e-13
1.7518532e-13
1.0560329e-13
1.4095729e-13
1.1259698e-13
1.3062799e-13
8.4910629e-14
1.0679183e-13
9.0426725e-14
9.7171696e-14
6.7639924e-14
8.0958182e-14
7.1986882e-14
7.2173576e-14
5.3580671e-14
6.1312318e-14
5.6889053e-14
5.3522344e-14
4.195913e-14
4.6128691e-14
4.4677164e-14
3.9654956e-14
3.2800921e-14
3.4648573e-14
3.4768475e-14
2.9393334e-14
2.5465404e-14
2.5993005e-14
2.693538e-14
2.1764841e-14
1.9664642e-14
1.9480747e-14
2.0765526e-14
1.6127476e-14
1.5110059e-14
1.4605275e-14
1.5923512e-14
1.1947464e-14
1.1577881e-14
1.0946511e-14
1.2136028e-14
8.8759986e-15
8.8174889e-15
8.2109136e-15
9.2248068e-15
6.5908878e-15
6.6872725e-15
6.1583588e-15
6.9862344e-15
4.9119069e-15
5.069599e-15
4.6241766e-15
5.2546507e-15
3.6486872e-15
3.8190875e-15
3.4937856e-15
3.9404105e-15
2.7438321e-15
2.8489296e-15
2.6190586e-15
2.9299393e-15
2.0548417e-15
2.0584426e-15
1.9839204e-15
2.0892336e-15
1.5525005e-15
1.6204958e-15
1.4934328e-15
1.6411758e-15
1.1651528e-15
1.247649e-15
1.1294129e-15
1.0974791e-15
8.7425945e-16
7.629164e-16
8.4072604e-16
9.3853634e-16
6.6996505e-16
6.5156448e-16
6.3373633e-16
6.5094961e-16
5.2444597e-16
4.0146722e-16
4.7210038e-16
3.9702928e-16
3.943597e-16
3.4615013e-16
3.4301272e-16
3.3060217e-16
2.9709737e-16
1.3341113e-16
2.6392776e-16
1.15322e-16
2.3204549e-16
9.2651926e-17
1.9840615e-16
2.512729e-16
1.7060209e-16
2.3469102e-16
1.4273986e-16
2.3077896e-16
1.2207977e-16
5.4625107e-17
1.1142048e-16
4.8202543e-17
1.0486719e-16
4.5187781e-17
7.2739383e-17
3.703547e-17
8.2896384e-17
5.3801966e-17
4.9670999e-17
3.190222e-17
6.1736761e-17
4.7237695e-17
4.1696773e-17
1.3936394e-17
6.6037064e-17
2.7191243e-17
2.4017429e-17
1.3186017e-17
9.3052072e-17
-5.0546088e-17
2.2069613e-17
-5.3033083e-19
)
;

boundaryField
{
    movingWall
    {
        type            calculated;
        value           nonuniform List<scalar> 
16
(
1.4137255e-16
-1.1892797e-16
-1.4137255e-16
1.1892797e-16
-2.8873373e-17
9.972752e-17
2.8873375e-17
-9.972752e-17
9.3523721e-17
-2.9007287e-17
-9.3523721e-17
2.900729e-17
-9.8427493e-17
2.1082614e-17
9.8427495e-17
-2.1082611e-17
)
;
    }
    CPLReceiveMD
    {
        type            calculated;
        value           nonuniform List<scalar> 
16
(
4.6972601e-11
-2.1931171e-09
-4.6972601e-11
2.1931171e-09
-1.8490519e-11
-3.6732993e-10
1.8490519e-11
3.6732993e-10
-1.4447253e-11
-1.7220826e-10
1.4447253e-11
1.7220826e-10
-4.8246583e-11
-3.1260727e-10
4.8246583e-11
3.1260727e-10
)
;
    }
    streamwiseIn
    {
        type            cyclic;
    }
    streamwiseOut
    {
        type            cyclic;
    }
    front
    {
        type            cyclic;
    }
    back
    {
        type            cyclic;
    }
}


// ************************************************************************* //
