/*--------------------------------*- C++ -*----------------------------------*\
| =========                 |                                                 |
| \\      /  F ield         | OpenFOAM: The Open Source CFD Toolbox           |
|  \\    /   O peration     | Version:  3.0.x                                 |
|   \\  /    A nd           | Web:      www.OpenFOAM.org                      |
|    \\/     M anipulation  |                                                 |
\*---------------------------------------------------------------------------*/
FoamFile
{
    version     2.0;
    format      ascii;
    class       volScalarField;
    location    "350";
    object      sigmayy;
}
// * * * * * * * * * * * * * * * * * * * * * * * * * * * * * * * * * * * * * //

dimensions      [0 2 -2 0 0 0 0];

internalField   nonuniform List<scalar> 
960
(
-5.2684943e-09
-2.0248311e-09
1.2127055e-09
1.0559841e-09
-7.8234766e-09
-8.1188109e-09
8.0487231e-09
7.6857335e-09
-1.2294957e-08
-1.4169465e-08
1.4221206e-08
1.4189913e-08
-1.5338248e-08
-1.6628305e-08
1.6260553e-08
1.674704e-08
-1.2842434e-08
-1.4077455e-08
1.3295632e-08
1.4215054e-08
-6.6288885e-09
-7.6630739e-09
6.9038019e-09
7.7998764e-09
2.4683213e-10
-3.1268615e-10
-5.8929959e-11
4.4604395e-10
5.5627577e-09
5.6023646e-09
-5.4201968e-09
-5.4700622e-09
8.5270512e-09
9.1215147e-09
-8.4129038e-09
-8.9904517e-09
9.4803272e-09
1.0468956e-08
-9.3923014e-09
-1.0344295e-08
9.1160137e-09
1.0356161e-08
-9.0551833e-09
-1.0244885e-08
8.0988418e-09
9.4539454e-09
-8.066468e-09
-9.3619345e-09
6.8674575e-09
8.2916324e-09
-6.8624599e-09
-8.2219908e-09
5.6650043e-09
7.1282978e-09
-5.6822038e-09
-7.0808001e-09
4.6302179e-09
6.1199088e-09
-4.6628398e-09
-6.0919283e-09
3.6978494e-09
5.3318065e-09
-3.7398171e-09
-5.3197409e-09
2.9568064e-09
4.632256e-09
-3.0030116e-09
-4.6321984e-09
2.2713503e-09
3.9937231e-09
-2.3178154e-09
-4.0018137e-09
1.6230179e-09
3.5043209e-09
-1.6667954e-09
-3.5170942e-09
1.00137e-09
2.8161459e-09
-1.0405431e-09
-2.8307288e-09
5.1323444e-10
2.3647015e-09
-5.4671229e-10
-2.3788634e-09
-6.3646326e-11
1.9240282e-09
3.656188e-11
-1.936156e-09
-6.1701376e-10
1.3811061e-09
5.9660891e-10
-1.3901583e-09
-1.0342802e-09
8.4529898e-10
1.0203733e-09
-8.5073245e-10
-1.4250034e-09
4.2573009e-10
1.4171253e-09
-4.2739898e-10
-1.8990347e-09
-1.0171932e-10
1.8965488e-09
1.0366544e-10
-2.1225383e-09
-6.2847536e-10
2.124719e-09
6.3367924e-10
-2.5382998e-09
-1.0458122e-09
2.5443858e-09
1.0537935e-09
-2.8121726e-09
-1.5773794e-09
2.8214069e-09
1.5876006e-09
-2.9425548e-09
-2.1131836e-09
2.9542166e-09
2.1251e-09
-3.0384865e-09
-2.5422472e-09
3.0519219e-09
2.5553537e-09
-3.2087987e-09
-3.0853479e-09
3.2234501e-09
3.0992091e-09
-3.2294172e-09
-3.5182652e-09
3.2448306e-09
3.5325352e-09
-2.9874092e-09
-4.5032424e-09
3.0032313e-09
4.5176768e-09
-2.9250673e-09
-4.8151275e-09
2.9410591e-09
4.8295854e-09
-2.8196602e-09
-5.1139479e-09
2.835695e-09
5.128387e-09
-2.6713461e-09
-5.3930193e-09
2.6873933e-09
5.4074866e-09
-2.4815201e-09
-5.6448046e-09
2.4976323e-09
5.6594246e-09
-2.253047e-09
-5.8610543e-09
2.2693469e-09
5.8760141e-09
-8.8089442e-10
-7.1425201e-09
8.975603e-10
7.1580557e-09
-5.9051306e-10
-6.1513173e-09
6.0776473e-10
6.1676983e-09
-2.8054636e-10
-6.2066996e-09
2.9863046e-10
6.2242123e-09
3.8952549e-11
-6.1896382e-09
-1.977655e-11
6.2085742e-09
3.5622252e-10
-6.0908135e-09
-3.356956e-10
6.1114556e-09
6.5808513e-10
-7.0108251e-09
-6.3596383e-10
7.0334345e-09
9.3042273e-10
-5.6126525e-09
-9.0649624e-10
5.6374483e-09
2.2684414e-09
-5.2175846e-09
-2.2425514e-09
5.2447268e-09
1.3298348e-09
-3.6005212e-09
-1.3019009e-09
3.6300888e-09
2.5411913e-09
-2.9766935e-09
-2.5112428e-09
3.0086549e-09
2.565673e-09
-2.2357286e-09
-2.5338852e-09
2.2699094e-09
2.5099063e-09
-1.3813419e-09
-2.4766374e-09
1.4173906e-09
2.3779704e-09
6.8555202e-10
-2.3437929e-09
-6.4818581e-10
1.0729922e-09
1.7249254e-09
-1.038703e-09
-1.6869911e-09
8.3639304e-10
2.8094043e-09
-8.029748e-10
-2.7718029e-09
5.9033539e-10
4.9900793e-09
-5.5878606e-10
-4.9537381e-09
3.7373755e-10
5.9644264e-09
-3.4477369e-10
-5.9299603e-09
2.2587381e-10
7.8103892e-09
-1.9951572e-10
-7.777783e-09
1.7222351e-10
7.9789115e-09
-1.5118119e-10
-7.9465425e-09
1.7350757e-10
6.9126077e-09
-1.3948159e-10
-6.8794095e-09
2.0615445e-10
4.2592659e-09
-1.4815895e-10
-4.2227751e-09
-2.047139e-09
-2.1486932e-09
1.8190209e-09
1.7264838e-09
-8.3773563e-09
-8.1681667e-09
8.3444909e-09
7.8936472e-09
-1.4209707e-08
-1.4038412e-08
1.4260108e-08
1.3944865e-08
-1.6274732e-08
-1.6606006e-08
1.6231614e-08
1.6566554e-08
-1.3316292e-08
-1.4029403e-08
1.3214905e-08
1.4001512e-08
-6.8836625e-09
-7.6152006e-09
6.7854203e-09
7.5933901e-09
9.1656261e-11
-3.0598618e-10
-1.5825527e-10
2.92316e-10
5.4376035e-09
5.556577e-09
-5.4693113e-09
-5.5590345e-09
8.4357779e-09
9.0428541e-09
-8.4424275e-09
-9.0352206e-09
9.4049914e-09
1.0388786e-08
-9.4016093e-09
-1.0375785e-08
9.0428411e-09
1.0266934e-08
-9.0405774e-09
-1.0253673e-08
8.0378062e-09
9.3740201e-09
-8.0415486e-09
-9.364048e-09
6.8158934e-09
8.2333023e-09
-6.8276245e-09
-8.2283718e-09
5.6506498e-09
7.2000402e-09
-5.6706403e-09
-7.2007357e-09
4.6249458e-09
6.2067841e-09
-4.6519225e-09
-6.2127669e-09
3.6974904e-09
5.3187561e-09
-3.7291797e-09
-5.3287112e-09
2.9586886e-09
4.5157674e-09
-2.9925433e-09
-4.5279026e-09
2.2739308e-09
3.9930202e-09
-2.3075888e-09
-4.0055755e-09
1.6255431e-09
3.3955626e-09
-1.6570267e-09
-3.4070065e-09
1.003571e-09
2.9308968e-09
-1.0312726e-09
-2.9400066e-09
4.0415386e-10
2.3692634e-09
-4.2690781e-10
-2.3751668e-09
-6.2004795e-11
1.8178763e-09
4.4740418e-11
-1.82005e-09
-6.1550521e-10
1.3858267e-09
6.0385968e-10
-1.3840466e-09
-1.0328097e-09
8.4974389e-10
1.0266984e-09
-8.4403098e-10
-1.4234832e-09
4.2978811e-10
1.4225895e-09
-4.2037238e-10
-1.8974083e-09
-9.8113141e-11
1.9012138e-09
1.1084024e-10
-2.2317477e-09
-6.2536065e-10
2.2395934e-09
6.4089825e-10
-2.5364492e-09
-1.0432187e-09
2.5476012e-09
1.0609953e-09
-2.810242e-09
-1.5753298e-09
2.823955e-09
1.5947571e-09
-2.9405574e-09
-2.0007366e-09
2.956127e-09
2.0212501e-09
-3.0364231e-09
-2.430368e-09
3.0532202e-09
2.4514548e-09
-3.2066613e-09
-2.9740395e-09
3.2241553e-09
2.9952653e-09
-3.22719e-09
-3.5184816e-09
3.2449673e-09
3.5395028e-09
-2.9850696e-09
-4.5040239e-09
3.0028413e-09
4.5245971e-09
-4.0321491e-09
-4.8164649e-09
4.0497434e-09
4.8364496e-09
-2.8170161e-09
-5.1158247e-09
2.8343701e-09
5.1351777e-09
-2.6685104e-09
-5.3954125e-09
2.6856627e-09
5.4141802e-09
-2.478471e-09
-5.6476821e-09
2.4955471e-09
5.6659909e-09
-2.2497699e-09
-5.8643741e-09
2.2669657e-09
5.8824171e-09
-8.7738438e-10
-6.0366687e-09
8.9495057e-10
6.0546942e-09
-5.8677784e-10
-6.1553501e-09
6.05003e-10
6.173647e-09
-2.7660882e-10
-6.2109785e-09
2.9580376e-10
6.2298619e-09
4.3051908e-11
-6.1940714e-09
-2.2568821e-11
6.213872e-09
3.6042226e-10
-6.0952947e-09
-3.3834096e-10
6.1163462e-09
6.6230001e-10
-7.0152342e-09
-6.3833529e-10
7.0378601e-09
9.3454054e-10
-5.6168528e-09
-9.0845098e-10
5.6413474e-09
2.2723208e-09
-5.2214275e-09
-2.2439316e-09
5.2480348e-09
1.3333025e-09
-3.6038455e-09
-1.302535e-09
3.632739e-09
2.5440434e-09
-2.9793257e-09
-2.5109504e-09
3.0105749e-09
2.5676788e-09
-2.2374898e-09
-2.5324847e-09
2.2710235e-09
2.5108176e-09
-1.3820455e-09
-2.4739604e-09
1.417625e-09
2.3775416e-09
6.8609633e-10
-2.3397014e-09
-6.4889377e-10
1.0710121e-09
1.7269016e-09
-1.0331078e-09
-1.6886625e-09
8.3273337e-10
3.9225513e-09
-7.9584395e-10
-3.8839309e-09
5.8500124e-10
4.9954804e-09
-5.5015854e-10
-4.956993e-09
3.6690184e-10
7.0812492e-09
-3.346846e-10
-7.0429114e-09
2.1786561e-10
7.8191432e-09
-1.8795853e-10
-7.7794958e-09
1.640702e-10
7.9851398e-09
-1.3503101e-10
-7.9419219e-09
1.7416713e-10
6.9232302e-09
-1.3546771e-10
-6.8872156e-09
2.2145009e-10
4.275689e-09
-1.7015885e-10
-4.259372e-09
-1.853896e-09
-1.8033235e-09
1.4236456e-09
1.252105e-09
-8.6529659e-09
-8.0922564e-09
8.2929201e-09
7.7098857e-09
-1.4642813e-08
-1.4286206e-08
1.4337482e-08
1.4080584e-08
-1.6565712e-08
-1.6781092e-08
1.6293578e-08
1.6623534e-08
-1.3477378e-08
-1.421651e-08
1.328933e-08
1.4086808e-08
-6.9535768e-09
-7.783286e-09
6.8646752e-09
7.6913751e-09
9.5219871e-11
-4.0860412e-10
-1.0076674e-10
3.6056186e-10
5.5017638e-09
5.5289638e-09
-5.4510008e-09
-5.5354122e-09
8.5224527e-09
9.0663021e-09
-8.4438195e-09
-9.0399105e-09
9.5093491e-09
1.0428033e-08
-9.425496e-09
-1.0381246e-08
9.1436114e-09
1.0326348e-08
-9.0711907e-09
-1.0271984e-08
8.1176885e-09
9.4327024e-09
-8.0669915e-09
-9.3812957e-09
6.8863407e-09
8.2769509e-09
-6.8599725e-09
-8.235389e-09
5.6827375e-09
7.1185318e-09
-5.6780907e-09
-7.0897993e-09
4.6458187e-09
6.1137151e-09
-4.6580687e-09
-6.0977062e-09
3.7111157e-09
5.3281279e-09
-3.734927e-09
-5.3231647e-09
2.9678204e-09
4.6302918e-09
-2.9983495e-09
-4.6339885e-09
2.2803339e-09
3.992884e-09
-2.3135909e-09
-4.0025255e-09
1.6302506e-09
3.5041841e-09
-1.6631426e-09
-3.5171344e-09
1.0071216e-09
2.816418e-09
-1.0374923e-09
-2.8303834e-09
5.1775652e-10
2.3651891e-09
-5.4414769e-10
-2.3783188e-09
-6.0122397e-11
1.9246075e-09
3.873734e-11
-1.9355301e-09
-6.1428838e-10
1.3816994e-09
5.9840437e-10
-1.3895277e-09
-1.0321876e-09
8.4585935e-10
1.02181e-09
-8.501413e-10
-1.4234055e-09
4.2623367e-10
1.4182564e-09
-4.268677e-10
-1.8978199e-09
-1.0128093e-10
1.8974306e-09
1.0412824e-10
-2.1216188e-09
-6.2810186e-10
2.1254014e-09
6.3407265e-10
-2.5376062e-09
-1.0454991e-09
2.5449109e-09
1.0541234e-09
-2.8116518e-09
-1.5771221e-09
2.821809e-09
1.5878721e-09
-2.9421656e-09
-2.1129748e-09
2.9545229e-09
2.1253205e-09
-3.0381962e-09
-2.5420787e-09
3.0521535e-09
2.555532e-09
-3.2085826e-09
-3.0852133e-09
3.2236245e-09
3.0993517e-09
-3.2292567e-09
-3.5181577e-09
3.2449629e-09
3.5326483e-09
-2.9872901e-09
-4.5031573e-09
3.0033316e-09
4.5177664e-09
-2.9249793e-09
-4.8150614e-09
2.9411343e-09
4.829656e-09
-2.8195951e-09
-5.1138962e-09
2.8357515e-09
5.1284417e-09
-2.6712978e-09
-5.3929791e-09
2.6874356e-09
5.4075289e-09
-2.4814844e-09
-5.6447736e-09
2.4976639e-09
5.6594574e-09
-2.2530206e-09
-5.8610305e-09
2.2693705e-09
5.8760392e-09
-8.8087491e-10
-7.1425018e-09
8.9757798e-10
7.1580747e-09
-5.904986e-10
-6.1513035e-09
6.0777799e-10
6.1677129e-09
-2.8053557e-10
-6.2066891e-09
2.9864028e-10
6.2242234e-09
3.8960536e-11
-6.1896301e-09
-1.9769153e-11
6.2085826e-09
3.562284e-10
-6.0908071e-09
-3.3569003e-10
6.1114624e-09
6.5808956e-10
-7.0108208e-09
-6.3595969e-10
7.033439e-09
9.3042607e-10
-5.6126499e-09
-9.0649309e-10
5.6374518e-09
2.268444e-09
-5.2175813e-09
-2.242549e-09
5.2447291e-09
1.3298367e-09
-3.600519e-09
-1.301899e-09
3.6300902e-09
2.5411926e-09
-2.9766923e-09
-2.5112415e-09
3.008657e-09
2.565674e-09
-2.2357275e-09
-2.5338842e-09
2.2699105e-09
2.5099072e-09
-1.3813409e-09
-2.4766367e-09
1.4173917e-09
2.3779711e-09
6.8555302e-10
-2.3437924e-09
-6.4818568e-10
1.0729927e-09
1.7249246e-09
-1.0387025e-09
-1.6869919e-09
8.363935e-10
2.8094043e-09
-8.0297446e-10
-2.7718019e-09
5.9033571e-10
4.9900802e-09
-5.587858e-10
-4.9537372e-09
3.7373779e-10
5.9644263e-09
-3.4477345e-10
-5.9299603e-09
2.2587404e-10
7.8103891e-09
-1.9951557e-10
-7.7777828e-09
1.7222365e-10
7.9789115e-09
-1.5118108e-10
-7.9465424e-09
1.7350766e-10
6.9126078e-09
-1.3948152e-10
-6.8794096e-09
2.0615457e-10
4.259266e-09
-1.4815898e-10
-4.2227753e-09
-2.0366372e-09
-2.1513426e-09
1.813663e-09
1.7281813e-09
-8.3561357e-09
-8.1665025e-09
8.3463728e-09
7.8946364e-09
-1.4202542e-08
-1.4033558e-08
1.4264627e-08
1.3945751e-08
-1.6288113e-08
-1.6614611e-08
1.623436e-08
1.6579412e-08
-1.3344578e-08
-1.4028349e-08
1.3228168e-08
1.4005587e-08
-6.8973024e-09
-7.6143229e-09
6.7870672e-09
7.5981701e-09
8.1568326e-11
-3.062318e-10
-1.5725554e-10
2.9653899e-10
5.4297837e-09
5.5438434e-09
-5.4688157e-09
-5.5447642e-09
8.4299458e-09
9.0405978e-09
-8.4421299e-09
-9.0329907e-09
9.4017038e-09
1.0386492e-08
-9.4013476e-09
-1.0374239e-08
9.0408459e-09
1.0264842e-08
-9.0405395e-09
-1.0252622e-08
8.0359382e-09
9.372229e-09
-8.0417519e-09
-9.3634325e-09
6.8146074e-09
8.2318675e-09
-6.8277442e-09
-8.2280876e-09
5.6499635e-09
7.1989429e-09
-5.6706247e-09
-7.200579e-09
4.6245033e-09
6.2059637e-09
-4.6519163e-09
-6.2126784e-09
3.6971696e-09
5.318152e-09
-3.729201e-09
-5.328695e-09
2.9584308e-09
4.5153284e-09
-2.9925902e-09
-4.527904e-09
2.2737088e-09
3.9927045e-09
-2.3076587e-09
-4.0055749e-09
1.6253389e-09
3.3953383e-09
-1.6571066e-09
-3.4070003e-09
1.0033752e-09
2.930738e-09
-1.0313375e-09
-2.9399925e-09
4.0396588e-10
2.3691519e-09
-4.2697102e-10
-2.3751471e-09
-6.2184534e-11
1.8178002e-09
4.4648895e-11
-1.8200271e-09
-6.1567575e-10
1.3857758e-09
6.0375424e-10
-1.3840209e-09
-1.0329683e-09
8.4971113e-10
1.0265996e-09
-8.4400278e-10
-1.4236282e-09
4.2976956e-10
1.422497e-09
-4.2034184e-10
-1.8975389e-09
-9.812101e-11
1.9011282e-09
1.1087048e-10
-2.2318638e-09
-6.2536283e-10
2.2395156e-09
6.4092744e-10
-2.5365512e-09
-1.0432155e-09
2.5475318e-09
1.0610245e-09
-2.8103299e-09
-1.5753233e-09
2.8238944e-09
1.5947849e-09
-2.9406315e-09
-2.0007286e-09
2.9560748e-09
2.021275e-09
-3.0364849e-09
-2.4303594e-09
3.0531763e-09
2.4514772e-09
-3.2067124e-09
-2.9740319e-09
3.224119e-09
2.9952847e-09
-3.2272316e-09
-3.5184742e-09
3.2449372e-09
3.5395194e-09
-2.9851032e-09
-4.5040161e-09
3.0028163e-09
4.5246117e-09
-4.032176e-09
-4.8164579e-09
4.0497232e-09
4.8364619e-09
-2.8170374e-09
-5.1158189e-09
2.8343542e-09
5.1351879e-09
-2.6685269e-09
-5.3954074e-09
2.6856501e-09
5.4141887e-09
-2.4784839e-09
-5.6476779e-09
2.4955372e-09
5.6659978e-09
-2.2497799e-09
-5.8643706e-09
2.2669581e-09
5.8824226e-09
-8.7739202e-10
-6.036666e-09
8.9494464e-10
6.0546986e-09
-5.8678372e-10
-6.1553479e-09
6.0499853e-10
6.1736504e-09
-2.7661315e-10
-6.2109767e-09
2.9580056e-10
6.2298645e-09
4.3048746e-11
-6.19407e-09
-2.2571264e-11
6.213874e-09
3.6041993e-10
-6.0952934e-09
-3.3834281e-10
6.1163483e-09
6.6229817e-10
-7.0152334e-09
-6.3833657e-10
7.0378614e-09
9.3453942e-10
-5.6168527e-09
-9.0845191e-10
5.6413475e-09
2.2723201e-09
-5.2214265e-09
-2.2439323e-09
5.2480349e-09
1.333302e-09
-3.6038446e-09
-1.3025355e-09
3.6327399e-09
2.544043e-09
-2.9793265e-09
-2.5109507e-09
3.0105758e-09
2.5676785e-09
-2.2374898e-09
-2.532485e-09
2.2710235e-09
2.5108175e-09
-1.3820446e-09
-2.4739606e-09
1.417625e-09
2.3775415e-09
6.8609632e-10
-2.3397015e-09
-6.4889381e-10
1.0710121e-09
1.7269016e-09
-1.0331078e-09
-1.6886626e-09
8.3273338e-10
3.9225513e-09
-7.9584394e-10
-3.883931e-09
5.8500124e-10
4.9954804e-09
-5.5015853e-10
-4.956993e-09
3.669019e-10
7.0812492e-09
-3.3468462e-10
-7.0429114e-09
2.1786566e-10
7.8191433e-09
-1.8795855e-10
-7.7794958e-09
1.6407022e-10
7.9851397e-09
-1.3503095e-10
-7.9419219e-09
1.7416716e-10
6.9232301e-09
-1.3546762e-10
-6.8872157e-09
2.2145015e-10
4.275689e-09
-1.7015887e-10
-4.2593721e-09
)
;

boundaryField
{
    movingWall
    {
        type            calculated;
        value           nonuniform List<scalar> 
16
(
2.3600272e-10
2.5746392e-10
2.3600288e-10
2.5746398e-10
3.6648317e-09
3.6795416e-09
3.6648318e-09
3.6795416e-09
-1.7114802e-10
-2.0316672e-10
-1.711481e-10
-2.0316676e-10
-3.6252758e-09
-3.6734482e-09
-3.625276e-09
-3.6734482e-09
)
;
    }
    CPLReceiveMD
    {
        type            calculated;
        value           nonuniform List<scalar> 
16
(
-5.2485689e-09
-3.2928256e-10
6.9115198e-11
-3.287961e-10
-3.8009705e-10
-5.3035153e-10
-1.2292537e-10
-5.3439197e-10
-7.0888562e-10
3.4241562e-11
-5.3798926e-10
2.6113723e-11
-7.1483388e-10
9.686947e-11
-4.9378738e-10
9.8703334e-11
)
;
    }
    streamwiseIn
    {
        type            cyclic;
    }
    streamwiseOut
    {
        type            cyclic;
    }
    front
    {
        type            cyclic;
    }
    back
    {
        type            cyclic;
    }
}


// ************************************************************************* //
