/*--------------------------------*- C++ -*----------------------------------*\
| =========                 |                                                 |
| \\      /  F ield         | OpenFOAM: The Open Source CFD Toolbox           |
|  \\    /   O peration     | Version:  3.0.x                                 |
|   \\  /    A nd           | Web:      www.OpenFOAM.org                      |
|    \\/     M anipulation  |                                                 |
\*---------------------------------------------------------------------------*/
FoamFile
{
    version     2.0;
    format      ascii;
    class       volScalarField;
    location    "350";
    object      sigmaxy;
}
// * * * * * * * * * * * * * * * * * * * * * * * * * * * * * * * * * * * * * //

dimensions      [0 2 -2 0 0 0 0];

internalField   nonuniform List<scalar> 
960
(
0.003884927
0.0038849463
0.0038849473
0.0038849267
-0.0057525767
-0.0057525483
-0.0057525487
-0.0057525765
-0.0057144774
-0.0057144543
-0.0057144557
-0.0057144761
-0.0042715813
-0.0042715718
-0.0042715735
-0.0042715797
-0.0025935962
-0.0025936009
-0.0025936018
-0.0025935952
-0.0011651163
-0.0011651284
-0.001165129
-0.0011651165
-0.00012082536
-0.00012083629
-0.00012083645
-0.00012082657
0.00058924745
0.0005892428
0.00058924288
0.00058924582
0.0010705084
0.0010705105
0.0010705107
0.0010705069
0.0014192176
0.0014192243
0.0014192244
0.0014192165
0.001703149
0.0017031575
0.0017031575
0.0017031483
0.0019630161
0.0019630243
0.0019630241
0.0019630155
0.0022202402
0.0022202469
0.0022202466
0.0022202395
0.002484742
0.0024847467
0.0024847462
0.0024847412
0.002760669
0.0027606718
0.0027606704
0.0027606682
0.0030498603
0.0030498612
0.0030498596
0.0030498594
0.0033535732
0.0033535723
0.0033535711
0.0033535721
0.0036731174
0.0036731156
0.0036731135
0.003673116
0.0040099381
0.0040099361
0.0040099338
0.0040099371
0.0043654976
0.0043654942
0.0043654924
0.0043654964
0.0047411227
0.0047411183
0.0047411155
0.0047411207
0.0051379035
0.0051378993
0.0051378963
0.0051379012
0.0055566476
0.0055566431
0.0055566405
0.0055566457
0.0059978709
0.0059978663
0.0059978628
0.0059978693
0.0064618124
0.0064618078
0.0064618041
0.00646181
0.0069484558
0.0069484513
0.0069484479
0.0069484537
0.0074575525
0.0074575482
0.007457544
0.0074575503
0.0079886357
0.0079886317
0.0079886273
0.0079886326
0.0085410297
0.0085410261
0.0085410222
0.0085410278
0.0091138574
0.0091138543
0.0091138495
0.0091138559
0.0097060361
0.0097060335
0.0097060287
0.0097060339
0.010316278
0.010316275
0.010316271
0.010316275
0.010943085
0.010943087
0.010943081
0.010943088
0.01158476
0.011584762
0.011584756
0.011584762
0.012239383
0.012239381
0.012239377
0.012239379
0.012904837
0.012904835
0.012904831
0.012904833
0.013578797
0.013578797
0.013578793
0.013578794
0.014258742
0.014258743
0.014258739
0.014258739
0.014941976
0.014941977
0.014941981
0.01494198
0.015625639
0.015625642
0.015625639
0.015625644
0.016306713
0.016306717
0.016306708
0.016306712
0.016982041
0.016982045
0.016982044
0.01698204
0.017648373
0.017648378
0.017648377
0.017648373
0.018302367
0.018302379
0.018302379
0.018302374
0.018940654
0.01894066
0.018940661
0.018940655
0.019559807
0.019559807
0.019559809
0.019559809
0.020156417
0.020156424
0.02015642
0.02015642
0.02072713
0.02072713
0.020727134
0.020727127
0.021268628
0.021268629
0.02126864
0.021268633
0.02177773
0.021777738
0.021777742
0.021777735
0.022251377
0.022251384
0.022251383
0.022251382
0.022686669
0.022686676
0.022686675
0.022686668
0.023080898
0.023080904
0.02308091
0.023080897
0.023431594
0.023431593
0.023431599
0.023431593
0.023736518
0.023736517
0.023736522
0.023736516
0.023993715
0.023993713
0.023993717
0.023993713
0.024201528
0.024201524
0.024201527
0.024201524
0.024358588
0.024358583
0.024358592
0.024358583
0.024463865
0.024463866
0.024463873
0.024463866
0.024516672
0.024516679
0.024516692
0.024516679
0.003884925
0.0038849467
0.0038849467
0.0038849237
-0.0057525761
-0.0057525487
-0.0057525487
-0.0057525754
-0.0057144754
-0.0057144532
-0.0057144538
-0.0057144731
-0.0042715792
-0.0042715703
-0.0042715714
-0.0042715766
-0.0025935939
-0.0025935995
-0.0025936003
-0.0025935927
-0.0011651154
-0.0011651282
-0.0011651286
-0.0011651157
-0.00012082597
-0.00012083709
-0.00012083717
-0.00012082729
0.00058924612
0.00058924149
0.00058924157
0.00058924449
0.001070507
0.0010705091
0.0010705093
0.0010705055
0.0014192165
0.0014192232
0.0014192233
0.0014192153
0.0017031482
0.0017031568
0.0017031568
0.0017031474
0.0019630155
0.0019630239
0.0019630236
0.001963015
0.0022202402
0.0022202468
0.0022202459
0.0022202395
0.0024847422
0.0024847467
0.0024847457
0.0024847414
0.0027606683
0.0027606712
0.0027606704
0.0027606675
0.0030498597
0.0030498612
0.0030498602
0.0030498594
0.0033535733
0.0033535723
0.0033535711
0.0033535721
0.0036731174
0.0036731149
0.0036731135
0.0036731154
0.0040099388
0.0040099361
0.0040099338
0.0040099371
0.0043654976
0.0043654949
0.0043654917
0.0043654964
0.0047411221
0.0047411183
0.0047411162
0.0047411207
0.0051379035
0.0051378986
0.0051378963
0.0051379012
0.0055566476
0.0055566431
0.0055566399
0.0055566457
0.0059978709
0.0059978663
0.0059978628
0.0059978693
0.0064618124
0.0064618078
0.0064618041
0.00646181
0.0069484558
0.0069484519
0.0069484479
0.0069484537
0.0074575525
0.0074575482
0.007457544
0.0074575503
0.0079886358
0.0079886311
0.0079886273
0.0079886326
0.0085410304
0.0085410261
0.0085410222
0.0085410278
0.0091138581
0.0091138543
0.0091138495
0.0091138559
0.0097060361
0.0097060335
0.0097060286
0.0097060339
0.010316277
0.010316276
0.010316271
0.010316276
0.010943085
0.010943088
0.010943082
0.010943089
0.01158476
0.011584762
0.011584757
0.011584755
0.012239383
0.012239381
0.012239377
0.012239379
0.012904837
0.012904835
0.012904831
0.012904839
0.013578797
0.013578797
0.013578793
0.013578794
0.014258742
0.014258743
0.014258739
0.014258739
0.014941976
0.014941977
0.014941974
0.01494198
0.015625639
0.015625642
0.015625639
0.015625644
0.016306713
0.016306717
0.016306715
0.016306712
0.016982041
0.016982045
0.016982044
0.01698204
0.017648373
0.017648378
0.017648377
0.017648373
0.018302367
0.018302379
0.018302379
0.018302374
0.018940654
0.01894066
0.018940661
0.018940655
0.019559807
0.019559807
0.019559809
0.019559809
0.020156417
0.020156424
0.02015642
0.02015642
0.02072713
0.02072713
0.020727134
0.020727127
0.021268628
0.021268629
0.02126864
0.021268633
0.02177773
0.021777738
0.021777742
0.021777735
0.022251377
0.022251384
0.022251383
0.022251382
0.022686669
0.022686676
0.022686675
0.022686668
0.023080904
0.023080904
0.02308091
0.023080897
0.023431594
0.023431593
0.023431599
0.023431593
0.023736518
0.023736517
0.023736522
0.023736516
0.023993715
0.023993713
0.023993717
0.023993713
0.024201521
0.024201524
0.024201527
0.024201524
0.024358588
0.024358583
0.024358592
0.024358583
0.024463865
0.024463866
0.024463873
0.024463866
0.024516672
0.024516679
0.024516692
0.024516679
0.003884927
0.0038849473
0.0038849473
0.0038849257
-0.0057525767
-0.0057525487
-0.0057525487
-0.0057525754
-0.0057144774
-0.005714455
-0.0057144557
-0.0057144754
-0.0042715813
-0.0042715724
-0.0042715735
-0.0042715797
-0.0025935962
-0.0025936011
-0.0025936018
-0.0025935949
-0.0011651163
-0.0011651285
-0.001165129
-0.0011651163
-0.00012082536
-0.00012083636
-0.00012083645
-0.00012082658
0.00058924745
0.00058924274
0.00058924288
0.00058924581
0.0010705084
0.0010705105
0.0010705107
0.0010705069
0.0014192176
0.0014192243
0.0014192244
0.0014192166
0.001703149
0.0017031576
0.0017031575
0.0017031482
0.0019630161
0.0019630243
0.0019630241
0.0019630154
0.0022202402
0.0022202469
0.0022202466
0.0022202394
0.002484742
0.0024847467
0.0024847462
0.0024847412
0.002760669
0.0027606718
0.0027606704
0.0027606682
0.0030498603
0.0030498612
0.0030498596
0.0030498594
0.0033535732
0.0033535723
0.0033535711
0.0033535721
0.0036731174
0.0036731156
0.0036731135
0.003673116
0.0040099381
0.0040099361
0.0040099338
0.0040099371
0.0043654976
0.0043654942
0.0043654924
0.0043654964
0.0047411227
0.0047411183
0.0047411155
0.0047411206
0.0051379035
0.0051378993
0.0051378963
0.0051379012
0.0055566476
0.0055566431
0.0055566405
0.0055566457
0.0059978709
0.0059978663
0.0059978628
0.0059978693
0.0064618124
0.0064618078
0.0064618041
0.00646181
0.0069484558
0.0069484513
0.0069484479
0.0069484537
0.0074575525
0.0074575482
0.007457544
0.0074575503
0.0079886357
0.0079886317
0.0079886273
0.0079886326
0.0085410297
0.0085410261
0.0085410222
0.0085410278
0.0091138574
0.0091138543
0.0091138495
0.0091138559
0.0097060361
0.0097060335
0.0097060287
0.0097060339
0.010316278
0.010316275
0.010316271
0.010316275
0.010943085
0.010943087
0.010943081
0.010943088
0.01158476
0.011584762
0.011584756
0.011584762
0.012239383
0.012239381
0.012239377
0.012239379
0.012904837
0.012904835
0.012904831
0.012904833
0.013578797
0.013578797
0.013578793
0.013578794
0.014258742
0.014258743
0.014258739
0.014258739
0.014941976
0.014941977
0.014941981
0.01494198
0.015625639
0.015625642
0.015625639
0.015625644
0.016306713
0.016306717
0.016306708
0.016306712
0.016982041
0.016982045
0.016982044
0.01698204
0.017648373
0.017648378
0.017648377
0.017648373
0.018302367
0.018302379
0.018302379
0.018302374
0.018940654
0.01894066
0.018940661
0.018940655
0.019559807
0.019559807
0.019559809
0.019559809
0.020156417
0.020156424
0.02015642
0.02015642
0.02072713
0.02072713
0.020727134
0.020727127
0.021268628
0.021268629
0.02126864
0.021268633
0.02177773
0.021777738
0.021777742
0.021777735
0.022251377
0.022251384
0.022251383
0.022251382
0.022686669
0.022686676
0.022686675
0.022686668
0.023080898
0.023080904
0.02308091
0.023080897
0.023431594
0.023431593
0.023431599
0.023431593
0.023736518
0.023736517
0.023736522
0.023736516
0.023993715
0.023993713
0.023993717
0.023993713
0.024201528
0.024201524
0.024201527
0.024201524
0.024358588
0.024358583
0.024358592
0.024358583
0.024463865
0.024463866
0.024463873
0.024463866
0.024516672
0.024516679
0.024516692
0.024516679
0.003884925
0.0038849467
0.0038849467
0.0038849237
-0.0057525761
-0.0057525487
-0.0057525487
-0.0057525754
-0.0057144754
-0.0057144532
-0.0057144539
-0.0057144731
-0.0042715792
-0.0042715703
-0.0042715714
-0.0042715766
-0.0025935939
-0.0025935995
-0.0025936003
-0.0025935927
-0.0011651154
-0.0011651282
-0.0011651286
-0.0011651157
-0.00012082603
-0.0001208371
-0.00012083717
-0.00012082729
0.00058924612
0.00058924149
0.00058924157
0.00058924449
0.001070507
0.0010705091
0.0010705093
0.0010705055
0.0014192165
0.0014192232
0.0014192233
0.0014192153
0.0017031482
0.0017031568
0.0017031568
0.0017031474
0.0019630155
0.0019630239
0.0019630236
0.001963015
0.0022202402
0.0022202468
0.0022202459
0.0022202395
0.0024847422
0.0024847467
0.0024847457
0.0024847414
0.0027606683
0.0027606712
0.0027606704
0.0027606675
0.0030498597
0.0030498612
0.0030498602
0.0030498594
0.0033535733
0.0033535723
0.0033535711
0.0033535721
0.0036731174
0.0036731149
0.0036731135
0.0036731154
0.0040099388
0.0040099361
0.0040099338
0.0040099371
0.0043654976
0.0043654949
0.0043654917
0.0043654964
0.0047411221
0.0047411183
0.0047411162
0.0047411207
0.0051379035
0.0051378986
0.0051378963
0.0051379012
0.0055566476
0.0055566431
0.0055566399
0.0055566457
0.0059978709
0.0059978663
0.0059978628
0.0059978693
0.0064618124
0.0064618078
0.0064618041
0.00646181
0.0069484558
0.0069484519
0.0069484479
0.0069484537
0.0074575525
0.0074575482
0.007457544
0.0074575503
0.0079886358
0.0079886311
0.0079886273
0.0079886326
0.0085410304
0.0085410261
0.0085410222
0.0085410278
0.0091138581
0.0091138543
0.0091138495
0.0091138559
0.0097060361
0.0097060335
0.0097060286
0.0097060339
0.010316277
0.010316276
0.010316271
0.010316276
0.010943085
0.010943088
0.010943082
0.010943089
0.01158476
0.011584762
0.011584757
0.011584755
0.012239383
0.012239381
0.012239377
0.012239379
0.012904837
0.012904835
0.012904831
0.012904839
0.013578797
0.013578797
0.013578793
0.013578794
0.014258742
0.014258743
0.014258739
0.014258739
0.014941976
0.014941977
0.014941974
0.01494198
0.015625639
0.015625642
0.015625639
0.015625644
0.016306713
0.016306717
0.016306715
0.016306712
0.016982041
0.016982045
0.016982044
0.01698204
0.017648373
0.017648378
0.017648377
0.017648373
0.018302367
0.018302379
0.018302379
0.018302374
0.018940654
0.01894066
0.018940661
0.018940655
0.019559807
0.019559807
0.019559809
0.019559809
0.020156417
0.020156424
0.02015642
0.02015642
0.02072713
0.02072713
0.020727134
0.020727127
0.021268628
0.021268629
0.02126864
0.021268633
0.02177773
0.021777738
0.021777742
0.021777735
0.022251377
0.022251384
0.022251383
0.022251382
0.022686669
0.022686676
0.022686675
0.022686668
0.023080904
0.023080904
0.02308091
0.023080897
0.023431594
0.023431593
0.023431599
0.023431593
0.023736518
0.023736517
0.023736522
0.023736516
0.023993715
0.023993713
0.023993717
0.023993713
0.024201521
0.024201524
0.024201527
0.024201524
0.024358588
0.024358583
0.024358592
0.024358583
0.024463865
0.024463866
0.024463873
0.024463866
0.024516672
0.024516679
0.024516692
0.024516679
)
;

boundaryField
{
    movingWall
    {
        type            calculated;
        value           nonuniform List<scalar> 
16
(
0.024529895
0.024529895
0.024529895
0.024529895
0.024529895
0.024529895
0.024529895
0.024529895
0.024529922
0.024529922
0.024529922
0.024529922
0.024529895
0.024529895
0.024529895
0.024529895
)
;
    }
    CPLReceiveMD
    {
        type            calculated;
        value           nonuniform List<scalar> 
16
(
0.012985504
0.012985501
0.012985504
0.012985501
0.012985515
0.012985517
0.012985517
0.012985517
0.012985517
0.012985517
0.012985517
0.012985517
0.012985504
0.012985499
0.012985502
0.012985499
)
;
    }
    streamwiseIn
    {
        type            cyclic;
    }
    streamwiseOut
    {
        type            cyclic;
    }
    front
    {
        type            cyclic;
    }
    back
    {
        type            cyclic;
    }
}


// ************************************************************************* //
