/*--------------------------------*- C++ -*----------------------------------*\
| =========                 |                                                 |
| \\      /  F ield         | OpenFOAM: The Open Source CFD Toolbox           |
|  \\    /   O peration     | Version:  3.0.x                                 |
|   \\  /    A nd           | Web:      www.OpenFOAM.org                      |
|    \\/     M anipulation  |                                                 |
\*---------------------------------------------------------------------------*/
FoamFile
{
    version     2.0;
    format      ascii;
    class       volScalarField;
    location    "350";
    object      sigmaxz;
}
// * * * * * * * * * * * * * * * * * * * * * * * * * * * * * * * * * * * * * //

dimensions      [0 2 -2 0 0 0 0];

internalField   nonuniform List<scalar> 
960
(
1.8718876e-12
-3.9260085e-12
-1.8718876e-12
3.9260085e-12
1.8610875e-12
-3.9437946e-12
-1.8610875e-12
3.9437969e-12
1.802657e-12
-3.1732837e-12
-1.802657e-12
3.1732843e-12
1.8275625e-11
-2.3162877e-12
-1.6322245e-12
2.3162877e-12
1.3927879e-12
-1.6125752e-12
-1.3927882e-12
1.8255977e-11
1.1443518e-12
-1.0935682e-12
-1.1443518e-12
1.0935685e-12
9.0064133e-13
-7.2924857e-13
-9.0064133e-13
7.2924828e-13
1.7329983e-11
-4.8094724e-13
-6.8658129e-13
4.8094724e-13
5.1129622e-13
-3.1385015e-13
-5.1129651e-13
3.1384986e-13
3.7426576e-13
-2.2562264e-13
-3.7426576e-13
2.2562264e-13
2.7075496e-13
-1.6189621e-13
-2.7075467e-13
1.6189621e-13
1.9551492e-13
-1.1534698e-13
-1.9551492e-13
1.1534756e-13
1.4325257e-13
-8.7618064e-14
-1.4325257e-13
8.7619228e-14
1.0463013e-13
-6.9736327e-14
-1.0463013e-13
6.9736909e-14
7.8010991e-14
-5.7432938e-14
-7.8011573e-14
5.7432938e-14
5.9235409e-14
-4.8375004e-14
-5.9235409e-14
4.8376168e-14
4.5560087e-14
-4.1099286e-14
-4.5560087e-14
4.1099286e-14
3.5512513e-14
-3.5010953e-14
-3.5512513e-14
3.5010953e-14
2.797206e-14
-2.9529207e-14
-2.797206e-14
2.9530371e-14
2.223187e-14
-2.4434128e-14
-2.223187e-14
2.4434128e-14
1.7799544e-14
-2.013647e-14
-1.7799544e-14
2.0137634e-14
1.4320529e-14
-1.6996204e-14
-1.4320529e-14
1.6998532e-14
1.155093e-14
-1.4141752e-14
-1.155093e-14
1.4141752e-14
9.3216343e-15
-1.1621368e-14
-9.3216343e-15
1.1621368e-14
7.5126961e-15
-9.4558137e-15
-7.5126961e-15
9.4558137e-15
6.0372619e-15
-7.6133429e-15
-6.0372619e-15
7.615671e-15
4.8304196e-15
-6.0807791e-15
-4.8304196e-15
6.0807791e-15
3.8444538e-15
-4.7953829e-15
-3.8444538e-15
4.7953829e-15
3.0423001e-15
-3.753263e-15
-3.0423001e-15
3.753263e-15
2.3954844e-15
-2.911093e-15
-2.3908283e-15
2.9157492e-15
1.8649093e-15
-2.2448016e-15
-1.8649093e-15
2.2448016e-15
1.4427056e-15
-1.7111141e-15
-1.4427056e-15
1.7111141e-15
1.1053098e-15
-1.306036e-15
-1.1053098e-15
1.306036e-15
8.3860631e-16
-9.9135522e-16
-8.3860631e-16
9.9135522e-16
6.2946802e-16
-7.4577534e-16
-6.2946802e-16
7.4577534e-16
4.6697988e-16
-5.5548268e-16
-4.6697988e-16
5.5548268e-16
3.4211123e-16
-4.0954218e-16
-3.4211123e-16
4.0954218e-16
2.4752449e-16
-2.9815346e-16
-2.3821222e-16
2.9815346e-16
1.7677737e-16
-2.133485e-16
-1.7677737e-16
2.133485e-16
1.2362932e-16
-1.4922013e-16
-1.2362932e-16
1.4922013e-16
8.5395362e-17
-1.0079637e-16
-8.5395362e-17
1.0079637e-16
6.7419396e-17
-6.4418801e-17
-5.8107124e-17
6.4418801e-17
3.8832493e-17
-2.9547924e-17
-3.8832493e-17
3.8860195e-17
2.5184407e-17
-2.2017691e-17
-2.5184407e-17
2.2017691e-17
1.5384463e-17
-1.1540811e-17
-1.5384463e-17
1.1540811e-17
8.1312836e-18
-6.4216651e-18
-8.1312836e-18
6.4216651e-18
2.5559771e-18
1.4951493e-17
-2.5559771e-18
3.6730506e-18
-2.1054236e-20
1.7283079e-17
2.1054236e-20
1.3414642e-18
-1.469851e-18
1.8175918e-18
1.469851e-18
-1.8175918e-18
-2.2703903e-18
2.2667347e-17
2.2703903e-18
-4.0428034e-18
-1.5514716e-18
4.8475979e-18
1.5514716e-18
-4.8475979e-18
-1.2877787e-18
7.0506706e-18
1.2877787e-18
-7.0506706e-18
-2.5583912e-18
7.6329816e-18
2.5583912e-18
-7.6329816e-18
-4.0924695e-18
6.7108944e-18
4.0924695e-18
-6.7108944e-18
-4.451562e-18
5.9662082e-18
4.451562e-18
-5.9662082e-18
-2.2733568e-17
4.6005318e-18
4.1090243e-18
-4.6005318e-18
1.3861994e-17
2.2547032e-17
4.7625498e-18
-3.9224882e-18
-5.2593979e-18
2.3366903e-17
5.2593979e-18
-4.7423592e-18
-5.0246561e-18
2.240284e-17
5.0246561e-18
-3.7782966e-18
-4.4864819e-18
2.1481561e-17
4.4864819e-18
-2.8570171e-18
-3.5832744e-12
3.1153473e-10
3.5832744e-12
-3.1153473e-10
-3.1718412e-12
2.9642951e-10
3.1718412e-12
-2.9642951e-10
-2.7148317e-12
2.5466329e-10
2.7148317e-12
-8.8229277e-11
-2.1768698e-12
1.0176518e-10
1.8820272e-11
-1.0176517e-10
-1.6290226e-12
5.9019157e-11
1.6290226e-12
-5.9019157e-11
-1.1554615e-12
2.6681532e-11
1.1554615e-12
-1.003813e-11
-7.9691119e-13
1.9427075e-12
7.9691119e-13
-1.9427075e-12
-5.4317888e-13
-1.6396532e-12
5.4317888e-13
1.6396532e-12
-3.6904583e-13
-1.9502038e-11
3.6904612e-13
2.8586367e-12
-2.5119403e-13
-1.9566028e-11
2.5119374e-13
1.9566028e-11
-1.7173793e-13
-2.543735e-12
1.7173793e-13
1.9187136e-11
-1.1886934e-13
-2.0660367e-12
1.1886934e-13
2.0660362e-12
-8.4252926e-14
-1.6028724e-12
8.4253508e-14
1.6028718e-12
-6.3664156e-14
-1.212284e-12
6.3664738e-14
1.212284e-12
-4.9948462e-14
-9.030092e-13
4.9949044e-14
9.030092e-13
-3.9823366e-14
-6.6592321e-13
3.9823366e-14
6.6592205e-13
-3.2089324e-14
-4.8705303e-13
3.2089324e-14
4.8705303e-13
-2.5954453e-14
-3.5324034e-13
2.5954453e-14
3.5324034e-13
-2.113036e-14
-2.5358096e-13
2.1129196e-14
2.5358096e-13
-1.7244338e-14
-1.8019396e-13
1.7244338e-14
1.8019396e-13
-1.4091286e-14
-1.2834935e-13
1.4091286e-14
1.2834935e-13
-1.1495739e-14
-9.2009533e-14
1.1495739e-14
9.2009533e-14
-9.3568421e-15
-6.592671e-14
9.3568421e-15
6.592671e-14
-7.5806583e-15
-4.70613e-14
7.5806583e-15
4.70613e-14
-6.0937551e-15
-3.3414321e-14
6.0937551e-15
3.3414321e-14
-4.8588763e-15
-2.358001e-14
4.8588763e-15
2.358001e-14
-3.8337975e-15
-1.6530513e-14
3.8337975e-15
1.6530513e-14
-2.9923821e-15
-1.1509916e-14
2.9923821e-15
1.1509916e-14
-2.3150006e-15
-7.9655303e-15
2.3150006e-15
7.9655303e-15
-1.7764634e-15
-5.4771054e-15
1.7764634e-15
5.4771054e-15
-1.3495369e-15
-3.7315937e-15
1.3495369e-15
3.7315937e-15
-1.0155755e-15
-2.5197178e-15
1.0155755e-15
2.5197178e-15
-7.5743704e-16
-1.7136243e-15
7.5743704e-16
1.7136243e-15
-5.5936409e-16
-1.164734e-15
5.5936409e-16
1.164734e-15
-4.0804544e-16
-7.899684e-16
4.0804544e-16
7.899684e-16
-2.9423453e-16
-5.3647941e-16
2.9423453e-16
5.3647941e-16
-2.0958336e-16
-3.6510846e-16
2.0958336e-16
3.6510846e-16
-1.4683924e-16
-2.5030111e-16
1.4683924e-16
2.5030111e-16
-1.0106506e-16
-1.7445613e-16
1.0106506e-16
1.7445613e-16
-6.910307e-17
-1.2389315e-16
6.910307e-17
1.2389315e-16
-4.6656947e-17
-9.0742688e-17
4.6656947e-17
9.0742688e-17
-3.1514281e-17
-6.9423056e-17
3.1514281e-17
6.9423056e-17
-2.09962e-17
-5.5984042e-17
2.09962e-17
5.5984042e-17
-1.3524428e-17
-4.7165785e-17
1.3524428e-17
4.7165785e-17
-8.9707768e-18
-4.1318592e-17
8.9707768e-18
4.1318592e-17
-5.7655905e-18
-3.7682475e-17
5.7655905e-18
3.7682475e-17
-3.7597278e-18
-3.482224e-17
3.7597278e-18
3.482224e-17
-1.6673027e-18
-3.2870452e-17
1.6673027e-18
3.2870452e-17
-1.445035e-18
-3.0566228e-17
1.445035e-18
3.0566228e-17
-1.8222411e-18
-2.7935262e-17
1.8222411e-18
2.7935262e-17
-2.5633252e-18
-2.5763714e-17
2.5633252e-18
2.5763714e-17
-5.7400812e-18
-2.338438e-17
5.7400812e-18
2.338438e-17
-7.1215051e-18
-2.1599372e-17
7.1215051e-18
2.1599372e-17
1.0915699e-17
-1.9101669e-17
7.7088441e-18
1.9101669e-17
-8.1072783e-18
-1.8772402e-17
8.1072783e-18
1.8772402e-17
9.2973138e-18
-1.7254471e-17
9.3272298e-18
1.7254471e-17
-1.0161533e-17
-1.4031804e-17
1.0161533e-17
1.4031804e-17
-1.0651746e-17
-1.2237298e-17
1.0651746e-17
1.2237298e-17
-1.0165186e-17
-1.0240206e-17
1.0165186e-17
1.0240206e-17
-5.7930935e-18
-5.0041126e-18
5.7930935e-18
5.0041126e-18
-1.8718876e-12
3.9260085e-12
1.8718876e-12
-3.9260085e-12
-1.8610875e-12
3.9437957e-12
1.8610875e-12
-3.9437969e-12
-1.802657e-12
3.1732837e-12
1.802657e-12
-3.1732837e-12
-1.8275625e-11
2.3162877e-12
1.6322239e-12
-2.3162877e-12
-1.3927882e-12
1.6125752e-12
1.3927882e-12
-1.8255977e-11
-1.1443518e-12
1.0935682e-12
1.1443518e-12
-1.0935685e-12
-9.0064133e-13
7.2924857e-13
9.0064133e-13
-7.2924828e-13
-1.7329983e-11
4.8094724e-13
6.8658129e-13
-4.8094724e-13
-5.1129651e-13
3.1384986e-13
5.1129651e-13
-3.1384957e-13
-3.7426576e-13
2.2562264e-13
3.7426576e-13
-2.2562264e-13
-2.7075467e-13
1.6189621e-13
2.7075467e-13
-1.6189621e-13
-1.9551492e-13
1.1534756e-13
1.9551492e-13
-1.1534756e-13
-1.4325257e-13
8.7618648e-14
1.4325257e-13
-8.761923e-14
-1.0463013e-13
6.9736909e-14
1.0463013e-13
-6.9736909e-14
-7.8010991e-14
5.7432938e-14
7.8010991e-14
-5.7432938e-14
-5.9235409e-14
4.8376168e-14
5.9235409e-14
-4.8376168e-14
-4.5560087e-14
4.1099286e-14
4.5560087e-14
-4.1099286e-14
-3.5512513e-14
3.5010953e-14
3.5512513e-14
-3.5010953e-14
-2.797206e-14
2.9530371e-14
2.797206e-14
-2.9530371e-14
-2.223187e-14
2.4434126e-14
2.223187e-14
-2.4434126e-14
-1.7799544e-14
2.0137634e-14
1.7799544e-14
-2.0137634e-14
-1.4320529e-14
1.6998532e-14
1.4320529e-14
-1.6998532e-14
-1.155093e-14
1.4141752e-14
1.155093e-14
-1.4141752e-14
-9.3216343e-15
1.1621368e-14
9.3216343e-15
-1.1621368e-14
-7.5126961e-15
9.4558137e-15
7.5126961e-15
-9.4558137e-15
-6.0372621e-15
7.6133429e-15
6.0372621e-15
-7.615671e-15
-4.8304196e-15
6.0807791e-15
4.8304196e-15
-6.0807791e-15
-3.8444538e-15
4.7953829e-15
3.8444538e-15
-4.7953829e-15
-3.0423003e-15
3.7532631e-15
3.0423003e-15
-3.7532631e-15
-2.3908283e-15
2.9157492e-15
2.3908283e-15
-2.9157492e-15
-1.8649093e-15
2.2448017e-15
1.8649093e-15
-2.2448017e-15
-1.4427055e-15
1.7111141e-15
1.4427055e-15
-1.7111141e-15
-1.1053096e-15
1.3060362e-15
1.1053096e-15
-1.3060362e-15
-8.3860633e-16
9.9135539e-16
8.3860633e-16
-9.9135539e-16
-6.2946802e-16
7.4577534e-16
6.2946802e-16
-7.5043148e-16
-4.6697986e-16
5.5548268e-16
4.6697986e-16
-5.5548268e-16
-3.4211121e-16
4.0954218e-16
3.4211121e-16
-4.0954218e-16
-2.4752449e-16
2.9815347e-16
2.4752449e-16
-2.9815347e-16
-1.7677736e-16
2.1334848e-16
1.7677736e-16
-2.1334848e-16
-1.2362932e-16
1.4922013e-16
1.2362932e-16
-1.4922013e-16
-8.5395362e-17
1.0079637e-16
8.5395362e-17
-1.0079637e-16
-5.8107124e-17
6.4418818e-17
5.8107124e-17
-6.4418818e-17
-3.8832496e-17
3.8860195e-17
3.8832496e-17
-3.8860195e-17
-2.5184406e-17
2.2017691e-17
2.5184406e-17
-2.2017691e-17
-1.5384463e-17
1.1540813e-17
1.5384463e-17
-1.1540813e-17
-8.1312819e-18
6.4216651e-18
8.1312819e-18
-6.4216651e-18
-2.5559738e-18
3.6730522e-18
2.5559738e-18
-3.6730522e-18
2.1054901e-20
1.3414645e-18
-2.1054901e-20
-1.3414645e-18
1.4698515e-18
-1.8175913e-18
-1.4698515e-18
1.8175913e-18
2.2703909e-18
-4.0428027e-18
-2.2703909e-18
4.0428027e-18
1.5514721e-18
-4.8475974e-18
-1.5514721e-18
4.8475974e-18
1.287779e-18
-7.0506701e-18
-1.287779e-18
7.0506701e-18
2.5583914e-18
-7.6329811e-18
-2.5583914e-18
7.6329811e-18
4.0924695e-18
-6.7108939e-18
-4.0924695e-18
6.7108939e-18
4.4515622e-18
-5.9662081e-18
-4.4515622e-18
5.9662081e-18
4.1090243e-18
-4.6005314e-18
-4.1090243e-18
4.6005314e-18
4.7625496e-18
-3.9224876e-18
-4.7625496e-18
3.9224876e-18
5.2593979e-18
-4.742359e-18
-5.2593979e-18
4.742359e-18
5.0246559e-18
-3.7782965e-18
-5.0246559e-18
3.7782965e-18
4.4864819e-18
-2.8570171e-18
-4.4864819e-18
2.8570171e-18
3.5832744e-12
-3.1153473e-10
-3.5832732e-12
3.1153473e-10
3.1718412e-12
-2.9642951e-10
-3.1718412e-12
2.9642951e-10
2.7148317e-12
-2.5466329e-10
-2.7148317e-12
8.8229276e-11
2.1768704e-12
-1.0176518e-10
-1.8820272e-11
1.0176517e-10
1.6290229e-12
-5.9019157e-11
-1.6290226e-12
5.9019157e-11
1.1554615e-12
-2.6681531e-11
-1.1554615e-12
1.003813e-11
7.9691119e-13
-1.9427075e-12
-7.9691119e-13
1.9427075e-12
5.4317859e-13
1.6396532e-12
-5.4317888e-13
-1.6396532e-12
3.6904612e-13
1.9502039e-11
-3.6904583e-13
-2.858637e-12
2.5119403e-13
1.9566029e-11
-2.5119374e-13
-1.9566028e-11
1.7173793e-13
2.543735e-12
-1.7173793e-13
-1.9187136e-11
1.1886934e-13
2.0660362e-12
-1.1886934e-13
-2.0660362e-12
8.4253508e-14
1.6028718e-12
-8.4253508e-14
-1.6028713e-12
6.3664156e-14
1.212284e-12
-6.3664156e-14
-1.212284e-12
4.9948462e-14
9.030092e-13
-4.9948462e-14
-9.030092e-13
3.9823366e-14
6.6592205e-13
-3.9823366e-14
-6.6592205e-13
3.2089324e-14
4.8705303e-13
-3.2089324e-14
-4.8705187e-13
2.5955617e-14
3.5324034e-13
-2.5953289e-14
-3.5324034e-13
2.113036e-14
2.5358096e-13
-2.1129196e-14
-2.535798e-13
1.7244338e-14
1.8019396e-13
-1.7244338e-14
-1.8019396e-13
1.409245e-14
1.2834935e-13
-1.4091286e-14
-1.2834819e-13
1.1495739e-14
9.2009533e-14
-1.1495739e-14
-9.2009533e-14
9.3591702e-15
6.592671e-14
-9.3568421e-15
-6.592671e-14
7.5806583e-15
4.70613e-14
-7.5806583e-15
-4.70613e-14
6.0960832e-15
3.3414321e-14
-6.0937551e-15
-3.3411993e-14
4.8612044e-15
2.3582336e-14
-4.8588763e-15
-2.357768e-14
3.8361256e-15
1.6530513e-14
-3.8337975e-15
-1.6528185e-14
2.9923821e-15
1.1509916e-14
-2.9923821e-15
-1.1509916e-14
2.3150006e-15
7.9655303e-15
-2.3150006e-15
-7.9655303e-15
1.7764634e-15
5.4771054e-15
-1.7764634e-15
-5.4771054e-15
1.354193e-15
3.7315937e-15
-1.3495369e-15
-3.7315937e-15
1.0155755e-15
2.5197178e-15
-1.0155755e-15
-2.5197178e-15
7.6209318e-16
1.7136244e-15
-7.5743704e-16
-1.7136244e-15
5.5936409e-16
1.1647339e-15
-5.5936409e-16
-1.1647339e-15
4.0804544e-16
7.899684e-16
-4.0804544e-16
-7.8531226e-16
2.9423453e-16
5.3647941e-16
-2.9423453e-16
-5.3647941e-16
2.0958336e-16
3.6510846e-16
-2.0958336e-16
-3.6510846e-16
1.4683924e-16
2.5030111e-16
-1.4683924e-16
-2.4098884e-16
1.0106506e-16
1.7445613e-16
-1.0106506e-16
-1.7445613e-16
6.910307e-17
1.2389315e-16
-6.910307e-17
-1.2389315e-16
4.665693e-17
9.0742688e-17
-4.665693e-17
-9.0742688e-17
3.1514281e-17
6.9423056e-17
-3.1514281e-17
-6.9423056e-17
3.0308472e-17
5.5984059e-17
-2.09962e-17
-4.6671787e-17
1.3524428e-17
4.7165785e-17
-1.3524428e-17
-3.7853514e-17
1.8283049e-17
4.1318609e-17
-8.9707768e-18
-4.1318609e-17
5.7655905e-18
3.7682475e-17
3.5466813e-18
-2.8370203e-17
3.7597444e-18
3.482224e-17
-3.7597444e-18
-3.482224e-17
1.6673027e-18
3.2870452e-17
-1.6673027e-18
-3.2870452e-17
1.4450367e-18
3.0566226e-17
-1.4450367e-18
-3.0566226e-17
1.8222411e-18
2.793526e-17
-1.8222411e-18
-2.793526e-17
2.5633268e-18
2.5763714e-17
-2.5633268e-18
-2.5763714e-17
5.7400812e-18
2.338438e-17
-5.7400812e-18
-2.338438e-17
7.1215035e-18
2.159937e-17
-7.1215035e-18
-2.159937e-17
7.7088458e-18
1.910167e-17
-7.7088458e-18
-1.910167e-17
2.6731823e-17
1.8772404e-17
-8.1072798e-18
-1.8772404e-17
9.3272305e-18
1.7254471e-17
-9.3272305e-18
-1.7254471e-17
1.0161533e-17
1.4031803e-17
-1.0161533e-17
4.5927401e-18
2.927629e-17
1.2237298e-17
-1.0651746e-17
6.387246e-18
1.0165187e-17
1.0240205e-17
-1.0165187e-17
8.3843382e-18
5.7930937e-18
5.0041124e-18
-5.7930937e-18
1.3620431e-17
)
;

boundaryField
{
    movingWall
    {
        type            calculated;
        value           nonuniform List<scalar> 
16
(
-4.4864819e-18
-5.7930935e-18
4.4864819e-18
5.7930937e-18
2.1481561e-17
-5.0041126e-18
-2.8570171e-18
5.0041124e-18
4.4864819e-18
5.7930935e-18
-4.4864819e-18
-5.7930937e-18
-2.8570171e-18
5.0041126e-18
2.8570171e-18
1.3620431e-17
)
;
    }
    CPLReceiveMD
    {
        type            calculated;
        value           nonuniform List<scalar> 
16
(
1.8718876e-12
-3.5832744e-12
-1.8718876e-12
3.5832744e-12
-3.9260085e-12
3.1153473e-10
3.9260085e-12
-3.1153473e-10
-1.8718876e-12
3.5832744e-12
1.8718876e-12
-3.5832732e-12
3.9260085e-12
-3.1153473e-10
-3.9260085e-12
3.1153473e-10
)
;
    }
    streamwiseIn
    {
        type            cyclic;
    }
    streamwiseOut
    {
        type            cyclic;
    }
    front
    {
        type            cyclic;
    }
    back
    {
        type            cyclic;
    }
}


// ************************************************************************* //
