/*--------------------------------*- C++ -*----------------------------------*\
| =========                 |                                                 |
| \\      /  F ield         | OpenFOAM: The Open Source CFD Toolbox           |
|  \\    /   O peration     | Version:  3.0.x                                 |
|   \\  /    A nd           | Web:      www.OpenFOAM.org                      |
|    \\/     M anipulation  |                                                 |
\*---------------------------------------------------------------------------*/
FoamFile
{
    version     2.0;
    format      ascii;
    class       volScalarField;
    location    "350";
    object      sigmaxx;
}
// * * * * * * * * * * * * * * * * * * * * * * * * * * * * * * * * * * * * * //

dimensions      [0 2 -2 0 0 0 0];

internalField   nonuniform List<scalar> 
960
(
3.611749e-09
1.8927797e-09
-1.2505245e-09
-1.3191346e-09
8.3665301e-09
8.4687812e-09
-8.1512615e-09
-8.0944035e-09
1.3679968e-08
1.4824484e-08
-1.4400765e-08
-1.4672564e-08
1.635355e-08
1.7239108e-08
-1.6658938e-08
-1.7161497e-08
1.3730583e-08
1.4765359e-08
-1.3869674e-08
-1.4729369e-08
7.4399491e-09
8.3478542e-09
-7.5350259e-09
-8.3400818e-09
4.8573163e-10
9.8305506e-10
-5.6359765e-10
-9.9567036e-10
-4.9289467e-09
-4.9785834e-09
4.8598075e-09
4.9504017e-09
-7.9634671e-09
-8.541546e-09
7.901898e-09
8.5025318e-09
-8.9907028e-09
-9.9351109e-09
8.9395916e-09
9.8911774e-09
-8.6919665e-09
-9.8816906e-09
8.6538466e-09
9.8386545e-09
-7.733372e-09
-9.0166288e-09
7.7097984e-09
8.9790685e-09
-6.5343273e-09
-7.8877635e-09
6.5251825e-09
7.8584103e-09
-5.3331195e-09
-6.7246549e-09
5.3359296e-09
6.7042593e-09
-4.3156908e-09
-5.7219061e-09
4.3270604e-09
5.709801e-09
-3.3495724e-09
-4.9954907e-09
3.366405e-09
4.9903558e-09
-2.6456492e-09
-4.3131732e-09
2.6653101e-09
4.3134061e-09
-1.969608e-09
-3.661238e-09
1.9900215e-09
3.6651588e-09
-1.3122064e-09
-3.2502145e-09
1.3318116e-09
3.2562631e-09
-6.682147e-10
-2.4068785e-09
6.8597024e-10
2.4137326e-09
-2.574711e-10
-2.0147386e-09
2.7275897e-10
2.0213558e-09
3.6403045e-10
-1.6279621e-09
-3.5162569e-10
1.6335791e-09
9.7373495e-10
-1.0236151e-09
-9.6441665e-10
1.0277345e-09
1.3489219e-09
-4.228201e-10
-1.3426509e-09
4.2518046e-10
1.7108105e-09
-4.6576875e-11
-1.7073952e-09
4.7107435e-11
2.280766e-09
5.5003965e-10
-2.2799228e-09
-5.5126654e-10
2.3925729e-09
1.1463073e-09
-2.393967e-09
-1.1491178e-09
2.9333635e-09
1.5214286e-09
-2.9366365e-09
-1.5255884e-09
3.2367657e-09
2.1200963e-09
-3.2415564e-09
-2.1253426e-09
3.3019807e-09
2.7208797e-09
-3.3079424e-09
-2.7269459e-09
3.3499645e-09
3.1018566e-09
-3.3567805e-09
-3.1084949e-09
3.6015681e-09
3.7062839e-09
-3.6089676e-09
-3.7132811e-09
3.6118874e-09
4.0891837e-09
-3.6196494e-09
-4.0963705e-09
3.1580229e-09
5.580282e-09
-3.1659754e-09
-5.5875393e-09
3.1268575e-09
5.736229e-09
-3.1348844e-09
-5.7434888e-09
3.0741581e-09
5.8856428e-09
-3.0821987e-09
-5.8928859e-09
3.0000041e-09
6.0251812e-09
-3.0080451e-09
-6.0324328e-09
2.9050934e-09
6.1510759e-09
-2.9131626e-09
-6.1583996e-09
2.7908586e-09
6.2592024e-09
-2.7990183e-09
-6.2666926e-09
4.404434e-10
8.5642767e-09
-4.487837e-10
-8.5720522e-09
2.9525367e-10
6.4043361e-09
-3.0388504e-10
-6.4125324e-09
1.4027103e-10
6.432028e-09
-1.4931725e-10
-6.4407886e-09
-1.9477905e-11
6.4234978e-09
9.8867563e-12
-6.432969e-09
-1.7811251e-10
6.3740859e-09
1.6784666e-10
-6.3844093e-09
-3.2904352e-10
8.4984321e-09
3.1798106e-10
-8.5097386e-09
-4.652121e-10
6.1350059e-09
4.5324747e-10
-6.1474051e-09
-2.7985614e-09
5.9374721e-09
2.7856154e-09
-5.9510442e-09
-6.6491783e-10
3.4646004e-09
6.5095006e-10
-3.4793849e-09
-2.9349361e-09
3.1526867e-09
2.9199613e-09
-3.1686678e-09
-2.9471769e-09
2.7822043e-09
2.9312825e-09
-2.799295e-09
-2.9192935e-09
2.355011e-09
2.9026587e-09
-2.3730356e-09
-2.8533255e-09
-3.427761e-10
2.8362365e-09
3.2409281e-10
-5.3649623e-10
-8.6246275e-10
5.1935139e-10
8.434955e-10
-4.1819662e-10
-1.4047022e-09
4.0148734e-10
1.3859014e-09
-2.951678e-10
-4.1593798e-09
2.7939298e-10
4.1412092e-09
-1.8686884e-10
-4.6465534e-09
1.7238681e-10
4.6293203e-09
-1.1293696e-10
-7.2338749e-09
9.9757835e-11
7.2175718e-09
-8.6111796e-11
-7.318136e-09
7.5590579e-11
7.3019515e-09
-8.6753797e-11
-6.7849841e-09
6.9740766e-11
6.7683851e-09
-1.0307724e-10
-3.7939731e-09
7.4079472e-11
3.7757277e-09
2.1945761e-09
2.0705782e-09
-2.0764321e-09
-1.8679623e-09
8.854736e-09
8.5769946e-09
-8.83438e-09
-8.4450713e-09
1.4765688e-08
1.4675434e-08
-1.4787496e-08
-1.463174e-08
1.6845519e-08
1.7274615e-08
-1.6821284e-08
-1.7256516e-08
1.3917305e-08
1.4688455e-08
-1.3864565e-08
-1.4675005e-08
7.4713952e-09
8.2193734e-09
-7.4207397e-09
-8.2082134e-09
4.7141254e-10
8.6986073e-10
-4.3698109e-10
-8.6242417e-10
-4.9148361e-09
-5.0407627e-09
4.9315174e-09
5.0426751e-09
-7.9620338e-09
-8.564946e-09
7.9659719e-09
8.5617619e-09
-8.9793683e-09
-9.9537666e-09
8.9781891e-09
9.947796e-09
-8.6486097e-09
-9.8597153e-09
8.6479029e-09
9.8534985e-09
-7.6801602e-09
-8.9806596e-09
7.6823831e-09
8.9759787e-09
-6.4700797e-09
-7.8611671e-09
6.4762758e-09
7.8589141e-09
-5.321605e-09
-6.9285245e-09
5.331921e-09
6.9290148e-09
-4.3094674e-09
-5.9326484e-09
4.3232682e-09
5.9357276e-09
-3.3464522e-09
-4.9893717e-09
3.3625984e-09
4.9943959e-09
-2.6441977e-09
-4.0886037e-09
2.6614122e-09
4.0946885e-09
-1.9689657e-09
-3.6608165e-09
1.9860642e-09
3.6670906e-09
-1.3119195e-09
-3.0292343e-09
1.3279104e-09
3.0349385e-09
-6.6808164e-10
-2.6304777e-09
6.8215935e-10
2.6350058e-09
-3.5521149e-11
-2.0168001e-09
4.7101382e-11
2.0197196e-09
3.639765e-10
-1.4082433e-09
-3.5516616e-10
1.4092953e-09
9.7357985e-10
-1.0257874e-09
-9.67603e-10
1.0248621e-09
1.3486524e-09
-4.2487974e-10
-1.3454651e-09
4.2198905e-10
1.7104106e-09
-4.8468583e-11
-1.7098528e-09
4.3728608e-11
2.2802301e-09
5.4834999e-10
-2.2820404e-09
-5.5474287e-10
2.6138241e-09
1.1448421e-09
-2.6176709e-09
-1.1526371e-09
2.9326005e-09
1.5202058e-09
-2.9381146e-09
-1.5291171e-09
3.2359239e-09
2.1191301e-09
-3.2427305e-09
-2.1288636e-09
3.3010757e-09
2.4982684e-09
-3.3088207e-09
-2.5085419e-09
3.3490037e-09
2.879519e-09
-3.3573708e-09
-2.8900764e-09
3.6005529e-09
3.4842236e-09
-3.6092752e-09
-3.4948481e-09
3.610814e-09
4.0893134e-09
-3.6196836e-09
-4.0998334e-09
3.1568833e-09
5.5806893e-09
-3.1657545e-09
-5.5909834e-09
5.3447612e-09
5.7369104e-09
-5.3535471e-09
-5.7469087e-09
3.072853e-09
5.8865908e-09
-3.0815215e-09
-5.896272e-09
2.9985989e-09
6.0263851e-09
-3.0071687e-09
-6.0357726e-09
2.9035783e-09
6.1525202e-09
-2.9121116e-09
-6.1616774e-09
2.789227e-09
6.2608664e-09
-2.7978215e-09
-6.2698901e-09
4.3869358e-10
6.347014e-09
-4.474742e-10
-6.3560283e-09
2.9338991e-10
6.4063548e-09
-3.0250072e-10
-6.4155044e-09
1.383051e-10
6.4341692e-09
-1.4790133e-10
-6.4436117e-09
-2.1525497e-11
6.4257157e-09
1.128479e-11
-6.4356166e-09
-1.8021084e-10
6.3763275e-09
1.6917074e-10
-6.3868537e-09
-3.3114983e-10
8.5006374e-09
3.1916781e-10
-8.5119506e-09
-4.6727015e-10
6.1371066e-09
4.5422559e-10
-6.1493541e-09
-2.8005005e-09
5.939394e-09
2.786306e-09
-5.9526978e-09
-6.6665126e-10
3.4662629e-09
6.5126754e-10
-3.4807096e-09
-2.9363618e-09
3.1540029e-09
2.9198153e-09
-3.1696276e-09
-2.9481795e-09
2.7830851e-09
2.9305825e-09
-2.7998519e-09
-2.919749e-09
2.3553629e-09
2.9013203e-09
-2.3731526e-09
-2.853111e-09
-3.4304816e-10
2.8341908e-09
3.2444688e-10
-5.3550606e-10
-8.634508e-10
5.1655389e-10
8.4433128e-10
-4.1636671e-10
-3.6256158e-09
3.9792196e-10
3.6063056e-09
-2.9250067e-10
-4.1620803e-09
2.7507926e-10
4.1428367e-09
-1.8345094e-10
-6.8693049e-09
1.6734229e-10
6.850136e-09
-1.0893283e-10
-7.2382519e-09
9.3979252e-11
7.2184282e-09
-8.2035123e-11
-7.3212502e-09
6.7515489e-11
7.2996413e-09
-8.7083585e-11
-6.7902954e-09
6.7733861e-11
6.7722881e-09
-1.1072504e-10
-3.8021847e-09
8.5079395e-11
3.7940262e-09
1.6137863e-09
1.6856377e-09
-1.7319913e-09
-1.4992501e-09
8.5262599e-09
8.2913213e-09
-8.6741289e-09
-8.2579749e-09
1.4601544e-08
1.4715281e-08
-1.4691206e-08
-1.4774614e-08
1.6807708e-08
1.7190813e-08
-1.6827405e-08
-1.7249013e-08
1.3975656e-08
1.4726839e-08
-1.3969139e-08
-1.4766778e-08
7.5564805e-09
8.3294757e-09
-7.5544096e-09
-8.3596939e-09
5.4156727e-10
9.7535661e-10
-5.5487891e-10
-1.0053991e-09
-4.8973117e-09
-4.9809388e-09
4.8697889e-09
4.9461936e-09
-7.9675985e-09
-8.5411952e-09
7.9327773e-09
8.5014819e-09
-9.025557e-09
-9.9335489e-09
8.9907287e-09
9.8917586e-09
-8.7096166e-09
-9.8797296e-09
8.681111e-09
9.8399455e-09
-7.7312766e-09
-9.0146903e-09
7.7133148e-09
8.9805417e-09
-6.5339172e-09
-7.8860589e-09
6.527379e-09
7.8598103e-09
-5.3337718e-09
-6.7232525e-09
5.3372381e-09
6.705533e-09
-4.3167438e-09
-5.7207943e-09
4.3278102e-09
5.7109047e-09
-3.3507224e-09
-4.9946289e-09
3.3667793e-09
4.9912494e-09
-2.6467404e-09
-4.312517e-09
2.6654467e-09
4.3141037e-09
-1.9705743e-09
-3.6607459e-09
1.9900218e-09
3.6656911e-09
-1.313032e-09
-3.2498502e-09
1.3317616e-09
3.2566636e-09
-6.6889915e-10
-2.4066116e-09
6.8591548e-10
2.4140317e-09
-2.5802439e-10
-2.0145468e-09
2.7267102e-10
2.0215754e-09
3.6358997e-10
-1.6278279e-09
-3.5175998e-10
1.633736e-09
9.7338823e-10
-1.0235238e-09
-9.6456211e-10
1.0278446e-09
1.3486522e-09
-4.2275907e-10
-1.3427809e-09
4.2525642e-10
1.7106021e-09
-4.6536971e-11
-1.7075039e-09
4.7157871e-11
2.2806055e-09
5.5006457e-10
-2.2800111e-09
-5.5123438e-10
2.39245e-09
1.1463215e-09
-2.3940375e-09
-1.1490983e-09
2.9332697e-09
1.5214352e-09
-2.9366921e-09
-1.5255782e-09
3.2366948e-09
2.1200987e-09
-3.2415998e-09
-2.1253379e-09
3.3019278e-09
2.7208798e-09
-3.3079757e-09
-2.7269447e-09
3.3499251e-09
3.1018547e-09
-3.3568055e-09
-3.1084963e-09
3.6015389e-09
3.7062811e-09
-3.608986e-09
-3.7132837e-09
3.6118659e-09
4.0891802e-09
-3.6196637e-09
-4.0963737e-09
3.1580071e-09
5.5802784e-09
-3.1659864e-09
-5.5875429e-09
3.1268461e-09
5.736226e-09
-3.1348926e-09
-5.7434925e-09
3.0741498e-09
5.8856399e-09
-3.0822048e-09
-5.8928891e-09
2.9999981e-09
6.0251786e-09
-3.0080496e-09
-6.0324356e-09
2.9050891e-09
6.1510737e-09
-2.9131658e-09
-6.1584021e-09
2.7908555e-09
6.2592006e-09
-2.7990207e-09
-6.2666947e-09
4.4044125e-10
8.5642751e-09
-4.4878544e-10
-8.5720539e-09
2.9525216e-10
6.4043349e-09
-3.0388632e-10
-6.4125338e-09
1.4026994e-10
6.432027e-09
-1.4931812e-10
-6.4407898e-09
-1.9478637e-11
6.4234969e-09
9.8860951e-12
-6.43297e-09
-1.7811297e-10
6.374085e-09
1.6784616e-10
-6.3844103e-09
-3.2904384e-10
8.4984317e-09
3.1798071e-10
-8.5097391e-09
-4.6521232e-10
6.1350059e-09
4.5324719e-10
-6.1474056e-09
-2.7985616e-09
5.9374714e-09
2.7856151e-09
-5.9510444e-09
-6.6491795e-10
3.4646e-09
6.5094989e-10
-3.4793849e-09
-2.9349361e-09
3.1526865e-09
2.9199612e-09
-3.1686684e-09
-2.9471769e-09
2.7822041e-09
2.9312824e-09
-2.7992952e-09
-2.9192935e-09
2.3550107e-09
2.9026587e-09
-2.3730359e-09
-2.8533255e-09
-3.4277642e-10
2.8362365e-09
3.2409294e-10
-5.3649624e-10
-8.6246223e-10
5.1935133e-10
8.4349604e-10
-4.1819665e-10
-1.4047021e-09
4.014873e-10
1.385901e-09
-2.9516779e-10
-4.1593802e-09
2.7939295e-10
4.1412088e-09
-1.8686885e-10
-4.6465533e-09
1.7238676e-10
4.6293203e-09
-1.1293697e-10
-7.2338749e-09
9.9757812e-11
7.2175717e-09
-8.6111784e-11
-7.3181361e-09
7.5590557e-11
7.3019515e-09
-8.6753801e-11
-6.7849842e-09
6.974077e-11
6.7683851e-09
-1.0307727e-10
-3.7939732e-09
7.4079492e-11
3.7757278e-09
2.1773883e-09
2.0766479e-09
-2.069986e-09
-1.8565784e-09
8.8323148e-09
8.5777768e-09
-8.8313567e-09
-8.4365073e-09
1.4752366e-08
1.4672481e-08
-1.4786801e-08
-1.4625498e-08
1.6844901e-08
1.7293923e-08
-1.6820701e-08
-1.7274698e-08
1.394282e-08
1.4685638e-08
-1.3886661e-08
-1.4673761e-08
7.4744936e-09
8.2163912e-09
-7.4209104e-09
-8.2085694e-09
4.7386606e-10
8.6758079e-10
-4.371544e-10
-8.6333586e-10
-4.9127155e-09
-5.0198093e-09
4.9314041e-09
5.019586e-09
-7.9603587e-09
-8.5654731e-09
7.9658375e-09
8.5610369e-09
-8.9786877e-09
-9.953898e-09
8.9779977e-09
9.9472415e-09
-8.6483609e-09
-9.8596246e-09
8.6477827e-09
9.853101e-09
-7.6798086e-09
-8.9804602e-09
7.6823638e-09
8.9757568e-09
-6.4699425e-09
-7.8609484e-09
6.4761803e-09
7.8588463e-09
-5.3217221e-09
-6.9283276e-09
5.3317319e-09
6.9290032e-09
-4.3096735e-09
-5.932482e-09
4.3230675e-09
5.9357516e-09
-3.3466901e-09
-4.9892348e-09
3.3624042e-09
4.9944596e-09
-2.6444382e-09
-4.0884925e-09
2.6612307e-09
4.0947631e-09
-1.9691942e-09
-3.6607261e-09
1.9858997e-09
3.6671649e-09
-1.3121255e-09
-3.0291604e-09
1.3277604e-09
3.0350091e-09
-6.6825951e-10
-2.6304159e-09
6.8201374e-10
2.63507e-09
-3.567069e-11
-2.0167478e-09
4.6970007e-11
2.0197775e-09
3.6385422e-10
-1.4081991e-09
-3.5526455e-10
1.4093473e-09
9.7348275e-10
-1.0257498e-09
-9.6767608e-10
1.0249077e-09
1.3485768e-09
-4.2484777e-10
-1.345524e-09
4.2202782e-10
1.7103533e-09
-4.8442222e-11
-1.7098986e-09
4.3760476e-11
2.2801878e-09
5.4837118e-10
-2.2820748e-09
-5.5471658e-10
2.6137939e-09
1.1448598e-09
-2.6176959e-09
-1.1526159e-09
2.93258e-09
1.5202195e-09
-2.9381322e-09
-1.529101e-09
3.2359104e-09
2.1191406e-09
-3.2427426e-09
-2.1288516e-09
3.3010671e-09
2.4982764e-09
-3.3088286e-09
-2.5085328e-09
3.3489986e-09
2.879525e-09
-3.3573758e-09
-2.8900699e-09
3.6005503e-09
3.4842285e-09
-3.6092783e-09
-3.4948433e-09
3.6108131e-09
4.0893169e-09
-3.619685e-09
-4.0998301e-09
3.1568834e-09
5.5806913e-09
-3.1657547e-09
-5.5909815e-09
5.344762e-09
5.7369116e-09
-5.3535468e-09
-5.7469076e-09
3.0728541e-09
5.8865916e-09
-3.0815209e-09
-5.8962714e-09
2.9986e-09
6.0263855e-09
-3.007168e-09
-6.0357724e-09
2.9035795e-09
6.1525204e-09
-2.9121108e-09
-6.1616775e-09
2.7892282e-09
6.2608665e-09
-2.7978207e-09
-6.2698904e-09
4.3869462e-10
6.347014e-09
-4.474734e-10
-6.3560287e-09
2.9339088e-10
6.4063548e-09
-3.0250004e-10
-6.4155048e-09
1.383059e-10
6.434169e-09
-1.4790083e-10
-6.4436121e-09
-2.152483e-11
6.4257155e-09
1.1285253e-11
-6.435617e-09
-1.8021027e-10
6.3763272e-09
1.6917116e-10
-6.3868542e-09
-3.3114927e-10
8.5006373e-09
3.1916812e-10
-8.511951e-09
-4.6726984e-10
6.1371067e-09
4.5422585e-10
-6.1493539e-09
-2.8005003e-09
5.9393936e-09
2.7863063e-09
-5.9526977e-09
-6.6665104e-10
3.4662625e-09
6.5126772e-10
-3.48071e-09
-2.9363617e-09
3.1540034e-09
2.9198155e-09
-3.1696281e-09
-2.9481794e-09
2.783085e-09
2.9305827e-09
-2.7998519e-09
-2.9197489e-09
2.3553624e-09
2.9013205e-09
-2.3731526e-09
-2.8531108e-09
-3.4304817e-10
2.8341909e-09
3.2444692e-10
-5.3550601e-10
-8.6345081e-10
5.1655391e-10
8.4433129e-10
-4.1636668e-10
-3.6256158e-09
3.9792198e-10
3.6063056e-09
-2.9250061e-10
-4.1620803e-09
2.7507928e-10
4.1428366e-09
-1.8345092e-10
-6.8693049e-09
1.6734232e-10
6.850136e-09
-1.0893281e-10
-7.2382519e-09
9.397929e-11
7.2184282e-09
-8.2035088e-11
-7.3212501e-09
6.751549e-11
7.2996413e-09
-8.7083557e-11
-6.7902954e-09
6.7733805e-11
6.7722881e-09
-1.1072506e-10
-3.8021847e-09
8.5079464e-11
3.7940262e-09
)
;

boundaryField
{
    movingWall
    {
        type            calculated;
        value           nonuniform List<scalar> 
16
(
-1.1800137e-10
-1.2873196e-10
-1.1800142e-10
-1.2873197e-10
-3.496756e-09
-3.504111e-09
-3.4967561e-09
-3.504111e-09
8.5574007e-11
1.0158333e-10
8.5574055e-11
1.0158341e-10
3.4769781e-09
3.5010643e-09
3.4769782e-09
3.5010643e-09
)
;
    }
    CPLReceiveMD
    {
        type            calculated;
        value           nonuniform List<scalar> 
16
(
3.6017863e-09
1.3356478e-09
6.5228071e-10
1.3234677e-09
1.0704127e-09
1.2614073e-09
8.4543869e-10
1.2681726e-09
-2.897289e-10
-1.1840425e-09
-7.5117381e-10
-1.1762114e-09
-4.3372561e-10
-1.0531551e-09
-6.2630391e-10
-1.0418394e-09
)
;
    }
    streamwiseIn
    {
        type            cyclic;
    }
    streamwiseOut
    {
        type            cyclic;
    }
    front
    {
        type            cyclic;
    }
    back
    {
        type            cyclic;
    }
}


// ************************************************************************* //
