/*--------------------------------*- C++ -*----------------------------------*\
| =========                 |                                                 |
| \\      /  F ield         | OpenFOAM: The Open Source CFD Toolbox           |
|  \\    /   O peration     | Version:  3.0.x                                 |
|   \\  /    A nd           | Web:      www.OpenFOAM.org                      |
|    \\/     M anipulation  |                                                 |
\*---------------------------------------------------------------------------*/
FoamFile
{
    version     2.0;
    format      ascii;
    class       volVectorField;
    location    "350";
    object      Ub;
}
// * * * * * * * * * * * * * * * * * * * * * * * * * * * * * * * * * * * * * //

dimensions      [0 1 -1 0 0 0 0];

internalField   nonuniform List<vector> 
960
(
(0.020909586 -1.4229662e-09 1.7930362e-11)
(0.02090959 4.046791e-11 -7.1275757e-12)
(0.020909591 -3.313106e-10 -5.6586172e-12)
(0.020909586 -3.6818066e-10 -1.8374601e-11)
(0.01696129 -4.2915241e-09 1.7741152e-11)
(0.016961315 -1.7462148e-09 -2.4247218e-12)
(0.016961316 1.1880619e-09 -5.9546997e-12)
(0.01696129 9.0624668e-10 -1.3606856e-11)
(0.012200078 -7.3793473e-09 1.462789e-11)
(0.012200123 -5.9649049e-09 7.905581e-13)
(0.012200124 5.6326239e-09 -4.438427e-12)
(0.012200079 5.0259411e-09 -1.0040503e-11)
(0.0083094672 -1.286748e-08 1.0978114e-11)
(0.008309521 -1.2103631e-08 2.4607584e-12)
(0.0083095204 1.1767856e-08 -2.9390391e-12)
(0.0083094696 1.1164138e-08 -7.3462748e-12)
(0.0057328299 -1.8418346e-08 7.9178736e-12)
(0.0057328772 -1.8197293e-08 3.4394429e-12)
(0.005732876 1.7600998e-08 -1.7711023e-12)
(0.0057328337 1.7289461e-08 -4.9289676e-12)
(0.004382723 -2.2022189e-08 5.5901391e-12)
(0.0043827517 -2.2321439e-08 3.820379e-12)
(0.0043827499 2.1370934e-08 -9.8044392e-13)
(0.0043827271 2.1458865e-08 -3.0553296e-12)
(0.0039688331 -2.2869776e-08 3.8911001e-12)
(0.0039688401 -2.353934e-08 3.6091785e-12)
(0.0039688379 2.2332514e-08 -4.9050763e-13)
(0.0039688365 2.2729185e-08 -1.8022233e-12)
(0.0041998028 -2.1295895e-08 2.6877136e-12)
(0.0041997919 -2.2092803e-08 3.0895768e-12)
(0.0041997896 2.0845829e-08 -2.0200361e-13)
(0.0041998048 2.1340732e-08 -1.0356694e-12)
(0.0048609757 -1.8178054e-08 1.863984e-12)
(0.0048609541 -1.8855655e-08 2.4863957e-12)
(0.0048609517 1.7801051e-08 -2.1747453e-14)
(0.0048609763 1.8166988e-08 -5.8567171e-13)
(0.0058205818 -1.4406468e-08 1.4467329e-12)
(0.0058205558 -1.4769322e-08 1.9202128e-12)
(0.0058205535 1.4089421e-08 9.1104711e-14)
(0.0058205813 1.4146001e-08 -3.2852078e-13)
(0.007009705 -1.0620909e-08 1.1247915e-12)
(0.007009679 -1.0540739e-08 1.4348789e-12)
(0.0070096767 1.0349234e-08 1.520564e-13)
(0.0070097038 9.9796992e-09 -1.9191997e-13)
(0.0083991864 -7.1748689e-09 8.7475327e-13)
(0.0083991628 -6.580232e-09 1.0457426e-12)
(0.0083991606 6.9327282e-09 1.8170046e-13)
(0.0083991849 6.0737269e-09 -1.2898671e-13)
(0.0099817512 -4.2046262e-09 7.5974687e-13)
(0.0099817309 -3.0595343e-09 7.4919333e-13)
(0.0099817287 3.9753039e-09 2.3330012e-13)
(0.0099817495 2.5965811e-09 -1.1152357e-13)
(0.011760673 -1.7164988e-09 6.9134458e-13)
(0.011760656 -1.9227948e-12 5.2835865e-13)
(0.011760654 1.485064e-09 2.7233823e-13)
(0.011760671 -4.2964235e-10 -1.0029969e-13)
(0.013743697 3.4129316e-10 6.4184574e-13)
(0.013743683 2.6395804e-09 3.6619419e-13)
(0.013743681 -5.8576294e-10 2.9676641e-13)
(0.013743695 -3.0511377e-09 -1.0252605e-13)
(0.015940376 2.0318272e-09 5.9829196e-13)
(0.015940365 4.9306944e-09 2.4807342e-13)
(0.015940362 -2.296564e-09 3.0762921e-13)
(0.015940374 -5.3319144e-09 -1.0783585e-13)
(0.01836124 3.4083994e-09 5.5491398e-13)
(0.018361231 6.929662e-09 1.6269205e-13)
(0.018361228 -3.6973816e-09 3.0797356e-13)
(0.018361238 -7.3281983e-09 -1.1105059e-13)
(0.021017745 4.509049e-09 5.1003587e-13)
(0.021017738 8.6786574e-09 1.0131557e-13)
(0.021017735 -4.823647e-09 2.9967651e-13)
(0.021017743 -9.0800101e-09 -1.1205736e-13)
(0.023922404 5.3589234e-09 4.6281856e-13)
(0.023922399 1.0204697e-08 5.7454487e-14)
(0.023922395 -5.6985333e-09 2.8538866e-13)
(0.023922402 -1.0612326e-08 -1.1061248e-13)
(0.027088861 5.9750886e-09 4.1425514e-13)
(0.027088859 1.1524046e-08 2.654248e-14)
(0.027088855 -6.3376679e-09 2.6744544e-13)
(0.02708886 -1.1939647e-08 -1.070352e-13)
(0.030531843 6.3708304e-09 3.6580822e-13)
(0.030531842 1.264667e-08 5.1529334e-15)
(0.030531838 -6.7535358e-09 2.4481352e-13)
(0.030531842 -1.3070527e-08 -1.0179362e-13)
(0.034267003 6.5585199e-09 3.1866774e-13)
(0.034267004 1.3579402e-08 -9.2408804e-15)
(0.034266999 -6.9580153e-09 2.1653398e-13)
(0.034267002 -1.4010733e-08 -9.5284165e-14)
(0.038310718 6.5510435e-09 2.7392652e-13)
(0.038310721 1.4327623e-08 -1.8301087e-14)
(0.038310716 -6.9636426e-09 1.889574e-13)
(0.038310717 -1.4764913e-08 -8.7703545e-14)
(0.042679864 6.3622451e-09 2.3258143e-13)
(0.042679869 1.489583e-08 -2.3410549e-14)
(0.042679864 -6.7842412e-09 1.6275575e-13)
(0.042679864 -1.5337132e-08 -7.9418537e-14)
(0.047391599 6.0068583e-09 1.9506738e-13)
(0.047391606 1.5287601e-08 -2.5664419e-14)
(0.0473916 -6.4347322e-09 1.3825319e-13)
(0.0473916 -1.5730791e-08 -7.0803606e-14)
(0.052463161 5.5003099e-09 1.6168127e-13)
(0.05246317 1.5505355e-08 -2.5922974e-14)
(0.052463164 -5.9308552e-09 1.1592337e-13)
(0.052463162 -1.5948322e-08 -6.2197181e-14)
(0.057911683 4.8585838e-09 1.3252954e-13)
(0.057911694 1.5550166e-08 -2.4852605e-14)
(0.057911688 -5.2889778e-09 9.5993865e-14)
(0.057911686 -1.5990954e-08 -5.3875636e-14)
(0.063754027 4.0982022e-09 1.0740999e-13)
(0.06375404 1.5421749e-08 -2.2949354e-14)
(0.063754033 -4.5260413e-09 7.8597473e-14)
(0.06375403 -1.5858649e-08 -4.6048321e-14)
(0.070006619 3.2363256e-09 8.6209636e-14)
(0.070006634 1.5118646e-08 -2.0580457e-14)
(0.070006627 -3.6596348e-09 6.3658579e-14)
(0.070006623 -1.5550243e-08 -3.8859774e-14)
(0.076685298 2.2909257e-09 6.8556166e-14)
(0.076685315 1.4638599e-08 -1.8025448e-14)
(0.076685308 -2.7081477e-09 5.1037216e-14)
(0.076685304 -1.506379e-08 -3.239047e-14)
(0.083805162 1.2809802e-09 5.4024039e-14)
(0.083805181 1.3979057e-08 -1.547237e-14)
(0.083805173 -1.6909482e-09 4.0536402e-14)
(0.08380517 -1.4397041e-08 -2.6677467e-14)
(0.091380411 2.2663483e-10 4.2189484e-14)
(0.091380432 1.3137786e-08 -1.304688e-14)
(0.091380424 -6.2852636e-10 3.1908448e-14)
(0.09138042 -1.354803e-08 -2.1715214e-14)
(0.099424193 -8.5072062e-10 3.2663565e-14)
(0.099424215 1.2113523e-08 -1.0832998e-14)
(0.099424207 4.5744536e-10 2.4816395e-14)
(0.099424203 -1.2515717e-08 -1.7474127e-14)
(0.10794844 -1.9284862e-09 2.50682e-14)
(0.10794847 1.0906655e-08 -8.8640066e-15)
(0.10794846 1.5441387e-09 1.9111754e-14)
(0.10794846 -1.1300656e-08 -1.3902678e-14)
(0.11696373 -2.983028e-09 1.9064443e-14)
(0.11696376 9.519885e-09 -7.1529134e-15)
(0.11696375 2.6077504e-09 1.4583536e-14)
(0.11696375 -9.9056582e-09 -1.0935001e-14)
(0.12647909 -3.9900078e-09 1.436067e-14)
(0.12647912 7.9588637e-09 -5.6950333e-15)
(0.12647911 3.6238426e-09 1.1023115e-14)
(0.12647911 -8.3364242e-09 -8.5008292e-15)
(0.13650189 -4.9248615e-09 1.0710398e-14)
(0.13650192 6.2327762e-09 -4.474694e-15)
(0.13650191 4.5678092e-09 8.24971e-15)
(0.13650191 -6.6021358e-09 -6.5302307e-15)
(0.14703764 -5.7634308e-09 7.9035766e-15)
(0.14703767 4.3548634e-09 -3.4699404e-15)
(0.14703766 5.4155006e-09 6.1121552e-15)
(0.14703766 -4.7159825e-09 -4.9571634e-15)
(0.15808989 -6.4827362e-09 5.7607208e-15)
(0.15808992 2.3428686e-09 -2.6529515e-15)
(0.15808991 6.1439894e-09 4.4788404e-15)
(0.15808991 -2.6956166e-09 -3.7150984e-15)
(0.16966007 -7.0618724e-09 4.1406654e-15)
(0.1696601 2.1939994e-10 -2.0007449e-15)
(0.1696601 6.7324583e-09 3.2440931e-15)
(0.1696601 -5.6352422e-10 -2.7435577e-15)
(0.1817474 -7.4830013e-09 2.9293217e-15)
(0.18174743 -1.9877971e-09 -1.4864252e-15)
(0.18174742 7.1631844e-09 2.3236981e-15)
(0.18174743 1.6526958e-09 -1.9995136e-15)
(0.19434874 -7.7324061e-09 2.0289046e-15)
(0.19434877 -4.2456629e-09 -1.084031e-15)
(0.19434876 7.4225857e-09 1.6418515e-15)
(0.19434877 3.9201438e-09 -1.4331611e-15)
(0.20745853 -7.801564e-09 1.3721976e-15)
(0.20745856 -6.5157478e-09 -7.7489845e-16)
(0.20745855 7.502285e-09 1.1387105e-15)
(0.20745856 6.2005357e-09 -1.0082191e-15)
(0.22106871 -7.6881737e-09 9.0111339e-16)
(0.22106874 -8.7542406e-09 -5.4106815e-16)
(0.22106873 7.4001303e-09 7.6882258e-16)
(0.22106874 8.450226e-09 -6.9238582e-16)
(0.23516866 -7.3970674e-09 5.6931441e-16)
(0.2351687 -1.0912109e-08 -3.681089e-16)
(0.23516869 7.1210988e-09 4.9997275e-16)
(0.2351687 1.0620338e-08 -4.6054471e-16)
(0.24974522 -6.9409081e-09 3.4426075e-16)
(0.24974525 -1.2935367e-08 -2.4405339e-16)
(0.24974524 6.6779851e-09 3.056769e-16)
(0.24974525 1.2657027e-08 -2.9290929e-16)
(0.26478258 -6.3405588e-09 1.918187e-16)
(0.26478261 -1.4765512e-08 -1.5682955e-16)
(0.2647826 6.0917601e-09 1.6974959e-16)
(0.26478262 1.4501898e-08 -1.7218685e-16)
(0.28026242 -5.6249817e-09 8.5993522e-17)
(0.28026245 -1.6340165e-08 -9.1363075e-17)
(0.28026243 5.391458e-09 7.7933486e-17)
(0.28026245 1.6092646e-08 -9.1236573e-17)
(0.29616385 -4.8305124e-09 1.283999e-17)
(0.29616387 -1.7594033e-08 -4.7336592e-17)
(0.29616386 4.6134337e-09 2.3760785e-17)
(0.29616388 1.7363994e-08 -3.8505158e-17)
(0.31246353 -3.9993442e-09 -3.4410747e-17)
(0.31246355 -1.8460321e-08 -1.7802723e-17)
(0.31246354 3.7998278e-09 -1.0120019e-17)
(0.31246356 1.8249095e-08 -4.1613391e-18)
(0.32913575 -3.1770756e-09 -6.1817196e-17)
(0.32913577 -1.8872813e-08 3.2007721e-18)
(0.32913576 2.9960927e-09 -3.2690951e-17)
(0.32913578 1.8681587e-08 1.2522614e-17)
(0.34615254 -2.4092313e-09 -7.8815797e-17)
(0.34615256 -1.8768933e-08 1.3993027e-17)
(0.34615254 2.2474925e-09 -3.6452638e-17)
(0.34615257 1.8598641e-08 2.17305e-17)
(0.3634838 -1.7367778e-09 -8.202064e-17)
(0.36348382 -1.8094359e-08 1.3584836e-17)
(0.3634838 1.5946041e-09 -3.6158731e-17)
(0.36348382 1.7945563e-08 2.8956641e-17)
(0.38109746 -1.1908335e-09 -8.118698e-17)
(0.38109748 -1.6810256e-08 1.4728011e-17)
(0.38109746 1.0680308e-09 -4.0865328e-17)
(0.38109748 1.6683039e-08 3.9317152e-17)
(0.39895968 -7.870417e-10 -7.7342916e-17)
(0.39895969 -1.4904241e-08 1.6315434e-17)
(0.39895967 6.82815e-10 -4.1495627e-17)
(0.39895969 1.4798142e-08 4.3062142e-17)
(0.417035 -5.2049934e-10 -7.2107561e-17)
(0.41703501 -1.2403872e-08 1.9438865e-17)
(0.41703499 4.3352143e-10 -4.4465785e-17)
(0.41703501 1.2317921e-08 4.4127474e-17)
(0.43528662 -3.6265742e-10 -6.8513843e-17)
(0.43528662 -9.3914722e-09 1.8324722e-17)
(0.4352866 2.9131967e-10 -4.4946015e-17)
(0.43528662 9.32451e-09 4.6939965e-17)
(0.45367657 -2.6401642e-10 -6.9545249e-17)
(0.45367657 -6.0549076e-09 1.5610001e-17)
(0.45367655 2.0696855e-10 -4.1051319e-17)
(0.45367657 6.0059815e-09 4.72105e-17)
(0.47216598 -1.6709518e-10 -6.4375264e-17)
(0.47216597 -2.8511484e-09 1.4526628e-17)
(0.47216596 1.1965132e-10 -4.1673795e-17)
(0.47216597 2.8209417e-09 4.4716707e-17)
(0.49071532 -6.6996102e-11 -5.3006203e-17)
(0.49071532 -7.2538668e-10 1.0298746e-17)
(0.49071531 4.8585244e-11 -3.5840138e-17)
(0.49071532 7.1415762e-10 3.7255266e-17)
(0.020909585 1.258804e-10 -9.3660477e-10)
(0.020909591 3.8881768e-11 -1.4478431e-10)
(0.020909591 -2.1040927e-10 -6.4783494e-11)
(0.020909584 -1.6033147e-10 -1.2325461e-10)
(0.016961288 -1.5730089e-09 -8.8305687e-10)
(0.016961315 -1.7210044e-09 -2.4661817e-10)
(0.016961315 1.3954141e-09 -1.0199362e-10)
(0.016961287 1.3694555e-09 -2.2756052e-10)
(0.012200078 -5.8634167e-09 -6.2905807e-10)
(0.012200124 -5.8337882e-09 -2.5171152e-10)
(0.012200124 5.7385987e-09 -9.8942417e-11)
(0.012200078 5.4046575e-09 -2.3539976e-10)
(0.0083094683 -1.191638e-08 -3.896957e-10)
(0.0083095231 -1.186638e-08 -2.1229532e-10)
(0.0083095222 1.1793448e-08 -7.8251124e-11)
(0.0083094708 1.1410939e-08 -1.9921584e-10)
(0.0057328331 -1.7756982e-08 -2.0874951e-10)
(0.0057328808 -1.7899786e-08 -1.6229781e-10)
(0.0057328792 1.7581177e-08 -5.4139563e-11)
(0.0057328372 1.7427089e-08 -1.5251001e-10)
(0.0043827275 -2.1545956e-08 -9.3815287e-11)
(0.004382756 -2.1989595e-08 -1.1789137e-10)
(0.004382754 2.1306348e-08 -3.3502316e-11)
(0.0043827318 2.1502858e-08 -1.1094891e-10)
(0.0039688375 -2.2525877e-08 -2.9997603e-11)
(0.0039688441 -2.3209125e-08 -8.3602847e-11)
(0.0039688418 2.2237355e-08 -1.8325064e-11)
(0.003968841 2.2711469e-08 -7.8814696e-11)
(0.0041998063 -2.1052284e-08 1.7094432e-12)
(0.0041997951 -2.179619e-08 -5.8665676e-11)
(0.0041997927 2.0736195e-08 -8.1422283e-12)
(0.0041998083 2.1293475e-08 -5.5402047e-11)
(0.004860978 -1.8015175e-08 1.5340428e-11)
(0.0048609562 -1.8613825e-08 -4.0940396e-11)
(0.0048609537 1.7690022e-08 -1.83537e-12)
(0.0048609787 1.8112861e-08 -3.8723024e-11)
(0.0058205831 -1.4308632e-08 1.9442452e-11)
(0.0058205569 -1.4590137e-08 -2.8388256e-11)
(0.0058205545 1.3984528e-08 1.8821771e-12)
(0.0058205826 1.4095611e-08 -2.6878985e-11)
(0.0070097055 -1.0574037e-08 1.9215104e-11)
(0.0070096795 -1.0421071e-08 -1.9445372e-11)
(0.0070096771 1.0252337e-08 3.931359e-12)
(0.0070097043 9.9344685e-09 -1.8413504e-11)
(0.0083991864 -7.1652468e-09 1.73023e-11)
(0.0083991629 -6.5104271e-09 -1.3042559e-11)
(0.0083991606 6.8433915e-09 4.8887548e-12)
(0.0083991849 6.030646e-09 -1.2328346e-11)
(0.0099817509 -4.2190421e-09 1.4798191e-11)
(0.0099817308 -3.0275995e-09 -8.4660386e-12)
(0.0099817284 3.8928263e-09 5.1675164e-12)
(0.0099817492 2.5520895e-09 -7.9598144e-12)
(0.011760673 -1.7441504e-09 1.2338607e-11)
(0.011760656 3.5919661e-12 -5.2281114e-12)
(0.011760653 1.4087241e-09 5.0547355e-12)
(0.011760671 -4.7793514e-10 -4.8455925e-12)
(0.013743697 3.0729419e-10 1.0135229e-11)
(0.013743683 2.6281719e-09 -2.9818783e-12)
(0.01374368 -6.5645237e-10 4.7096001e-12)
(0.013743695 -3.1045795e-09 -2.6817686e-12)
(0.015940375 1.9954734e-09 8.2361615e-12)
(0.015940364 4.9095243e-09 -1.4683642e-12)
(0.015940361 -2.3617686e-09 4.235044e-12)
(0.015940373 -5.3907274e-09 -1.22909e-12)
(0.018361239 3.3717667e-09 6.6329938e-12)
(0.018361231 6.9037421e-09 -4.8949689e-13)
(0.018361228 -3.7571368e-09 3.7065906e-12)
(0.018361238 -7.3914891e-09 -2.9669181e-13)
(0.021017744 4.4730212e-09 5.2957612e-12)
(0.021017737 8.6512874e-09 1.0901035e-13)
(0.021017734 -4.8779763e-09 3.1733565e-12)
(0.021017742 -9.1462831e-09 2.6495475e-13)
(0.023922403 5.323758e-09 4.1919803e-12)
(0.023922398 1.0177926e-08 4.4445699e-13)
(0.023922395 -5.7475512e-09 2.6683677e-12)
(0.023922401 -1.0679927e-08 5.7140938e-13)
(0.027088861 5.9407552e-09 3.2916687e-12)
(0.027088858 1.1499045e-08 6.0515437e-13)
(0.027088854 -6.3816489e-09 2.2089936e-12)
(0.027088859 -1.2007022e-08 7.0876503e-13)
(0.030531842 6.3372305e-09 2.5652077e-12)
(0.030531842 1.2624049e-08 6.5425221e-13)
(0.030531837 -6.792651e-09 1.7940351e-12)
(0.030531841 -1.3136374e-08 7.3891811e-13)
(0.034267002 6.5255775e-09 1.9849902e-12)
(0.034267003 1.3559415e-08 6.3661194e-13)
(0.034266999 -6.9924625e-09 1.4321613e-12)
(0.034267001 -1.4074071e-08 7.0568279e-13)
(0.038310717 6.5187271e-09 1.5260906e-12)
(0.03831072 1.4310299e-08 5.8276647e-13)
(0.038310715 -6.9938864e-09 1.1299774e-12)
(0.038310716 -1.4825066e-08 6.38986e-13)
(0.042679863 6.3305621e-09 1.1665525e-12)
(0.042679868 1.4881061e-08 5.1254218e-13)
(0.042679863 -6.8107874e-09 8.8378999e-13)
(0.042679863 -1.5393669e-08 5.5808971e-13)
(0.047391598 5.9758591e-09 8.8703611e-13)
(0.047391605 1.5275201e-08 4.3815985e-13)
(0.047391599 -6.4580575e-09 6.8626993e-13)
(0.047391599 -1.5783455e-08 4.7477349e-13)
(0.05246316 5.4700805e-09 6.7132168e-13)
(0.052463169 1.549509e-08 3.666907e-13)
(0.052463163 -5.9514046e-09 5.2964385e-13)
(0.052463161 -1.5996982e-08 3.9588471e-13)
(0.057911682 4.8292215e-09 5.0600451e-13)
(0.057911694 1.5541775e-08 3.0184341e-13)
(0.057911687 -5.3071686e-09 4.0668279e-13)
(0.057911685 -1.6035555e-08 3.2487835e-13)
(0.063754026 4.0697952e-09 3.8006193e-13)
(0.063754039 1.5414951e-08 2.4518254e-13)
(0.063754032 -4.542268e-09 3.109059e-13)
(0.063754029 -1.589918e-08 2.6316193e-13)
(0.070006618 3.2089419e-09 2.8471682e-13)
(0.070006633 1.5113144e-08 1.9698407e-13)
(0.070006626 -3.6742726e-09 2.3685683e-13)
(0.070006622 -1.5586721e-08 2.1089349e-13)
(0.076685298 2.2646174e-09 2.1285758e-13)
(0.076685314 1.4634084e-08 1.5678624e-13)
(0.076685307 -2.7215567e-09 1.7994901e-13)
(0.076685303 -1.5096238e-08 1.6745992e-13)
(0.083805162 1.2557936e-09 1.5885543e-13)
(0.08380518 1.3975213e-08 1.2378129e-13)
(0.083805172 -1.703475e-09 1.3643457e-13)
(0.083805169 -1.4425484e-08 1.3188983e-13)
(0.091380411 2.0261597e-10 1.1842309e-13)
(0.091380431 1.3134292e-08 9.7021649e-14)
(0.091380423 -6.4050571e-10 1.0328365e-13)
(0.091380419 -1.3572491e-08 1.0312362e-13)
(0.099424192 -8.7352064e-10 8.8212873e-14)
(0.099424215 1.2110058e-08 7.5549786e-14)
(0.099424206 4.4568524e-10 7.7916755e-14)
(0.099424203 -1.2536218e-08 8.0100761e-14)
(0.10794844 -1.9500065e-09 6.5693683e-14)
(0.10794847 1.0902899e-08 5.8484843e-14)
(0.10794846 1.5322887e-09 5.869551e-14)
(0.10794846 -1.1317221e-08 6.1845719e-14)
(0.11696373 -3.0031943e-09 4.8932828e-14)
(0.11696376 9.51552e-09 4.503281e-14)
(0.11696375 2.5955278e-09 4.4186392e-14)
(0.11696374 -9.9183132e-09 4.7484505e-14)
(0.12647909 -4.0087311e-09 3.6473007e-14)
(0.12647912 7.9535795e-09 3.4500827e-14)
(0.12647911 3.6109833e-09 3.3249631e-14)
(0.12647911 -8.345204e-09 3.6268702e-14)
(0.13650189 -4.9420382e-09 2.7210144e-14)
(0.13650192 6.2262728e-09 2.630887e-14)
(0.13650191 4.554071e-09 2.5016431e-14)
(0.13650191 -6.6070869e-09 2.7568128e-14)
(0.14703764 -5.7789437e-09 2.0327977e-14)
(0.14703767 4.3468562e-09 1.9973236e-14)
(0.14703766 5.4006678e-09 1.8824071e-14)
(0.14703766 -4.7171669e-09 2.0855503e-14)
(0.15808989 -6.4964577e-09 1.5215666e-14)
(0.15808992 2.3330936e-09 1.5098827e-14)
(0.15808991 6.1278771e-09 1.4167466e-14)
(0.15808991 -2.6931156e-09 1.5706065e-14)
(0.16966007 -7.0736694e-09 1.1411519e-14)
(0.1696601 2.0761999e-10 1.1364349e-14)
(0.16966009 6.714917e-09 1.0667121e-14)
(0.1696601 -5.5744092e-10 1.1779547e-14)
(0.1817474 -7.492741e-09 8.5808118e-15)
(0.18174743 -2.0017858e-09 8.5172797e-15)
(0.18174742 7.1441052e-09 8.0355946e-15)
(0.18174743 1.6622332e-09 8.7976127e-15)
(0.19434874 -7.7399646e-09 6.4724759e-15)
(0.19434877 -4.2620239e-09 6.3549728e-15)
(0.19434876 7.4019058e-09 6.0553553e-15)
(0.19434877 3.9329802e-09 6.5443228e-15)
(0.20745853 -7.8068347e-09 4.8986575e-15)
(0.20745856 -6.5345966e-09 4.722369e-15)
(0.20745855 7.4799941e-09 4.5622837e-15)
(0.20745856 6.216487e-09 4.8485223e-15)
(0.22106871 -7.6910789e-09 3.7201215e-15)
(0.22106874 -8.7756365e-09 3.4958197e-15)
(0.22106873 7.3762783e-09 3.4367312e-15)
(0.22106874 8.4690772e-09 3.5770797e-15)
(0.23516866 -7.3975704e-09 2.8359133e-15)
(0.2351687 -1.0936047e-08 2.5761006e-15)
(0.23516869 7.095803e-09 2.5876552e-15)
(0.2351687 1.0641842e-08 2.6300005e-15)
(0.24974522 -6.9390281e-09 2.1713548e-15)
(0.24974525 -1.296177e-08 1.8912044e-15)
(0.24974524 6.6514395e-09 1.9449439e-15)
(0.24974525 1.2680903e-08 1.9258463e-15)
(0.26478258 -6.3363866e-09 1.6697244e-15)
(0.26478261 -1.479422e-08 1.3825607e-15)
(0.2647826 6.0642441e-09 1.4604989e-15)
(0.26478262 1.4527829e-08 1.4051506e-15)
(0.28026242 -5.6186971e-09 1.2892364e-15)
(0.28026245 -1.6370932e-08 1.0101773e-15)
(0.28026243 5.3633448e-09 1.091738e-15)
(0.28026245 1.6120278e-08 1.0201951e-15)
(0.29616385 -4.8224029e-09 1.0012382e-15)
(0.29616387 -1.7626516e-08 7.3145943e-16)
(0.29616386 4.5851973e-09 8.1758447e-16)
(0.29616388 1.7392934e-08 7.4014176e-16)
(0.31246353 -3.9898212e-09 7.7886521e-16)
(0.31246355 -1.8494077e-08 5.276649e-16)
(0.31246354 3.7720465e-09 6.1101934e-16)
(0.31246356 1.8278907e-08 5.3861363e-16)
(0.32913575 -3.1666887e-09 6.1039194e-16)
(0.32913577 -1.8907296e-08 3.7561477e-16)
(0.32913576 2.9694464e-09 4.5559357e-16)
(0.32913578 1.8711792e-08 3.9101622e-16)
(0.34615254 -2.3986736e-09 4.841783e-16)
(0.34615256 -1.8803488e-08 2.5557136e-16)
(0.34615254 2.2227508e-09 3.4367589e-16)
(0.34615257 1.8628719e-08 2.9005999e-16)
(0.3634838 -1.7268779e-09 3.8736676e-16)
(0.36348382 -1.8128224e-08 1.7362781e-16)
(0.3634838 1.5726037e-09 2.5758937e-16)
(0.36348382 1.7974964e-08 2.1641657e-16)
(0.38109747 -1.1825243e-09 3.0924602e-16)
(0.38109748 -1.6842567e-08 1.1529461e-16)
(0.38109746 1.0496424e-09 1.944758e-16)
(0.38109748 1.6711219e-08 1.6161233e-16)
(0.39895968 -7.8129746e-10 2.550641e-16)
(0.39895969 -1.4934033e-08 7.0285443e-17)
(0.39895967 6.6891174e-10 1.4227224e-16)
(0.39895969 1.4824627e-08 1.1899711e-16)
(0.41703501 -5.1824718e-10 2.0756976e-16)
(0.41703501 -1.243005e-08 3.2591176e-17)
(0.41703499 4.2492967e-10 1.0389822e-16)
(0.41703501 1.2342405e-08 8.8632784e-17)
(0.43528662 -3.6467526e-10 1.6180912e-16)
(0.43528662 -9.4130174e-09 1.8702983e-18)
(0.4352866 2.8887269e-10 7.750061e-17)
(0.43528662 9.3471445e-09 6.2924721e-17)
(0.45367657 -2.7085771e-10 1.249004e-16)
(0.45367657 -6.0711454e-09 -2.3667586e-17)
(0.45367655 2.1150013e-10 5.1373977e-17)
(0.45367657 6.0285205e-09 4.0332228e-17)
(0.47216598 -1.7837123e-10 8.8497246e-17)
(0.47216597 -2.8656213e-09 -4.4450034e-17)
(0.47216596 1.355431e-10 2.6970126e-17)
(0.47216597 2.8488229e-09 1.662634e-17)
(0.49071532 -7.3088479e-11 4.2557945e-17)
(0.49071532 -7.2956252e-10 -3.9637214e-17)
(0.49071531 5.7674667e-11 1.2491299e-17)
(0.49071532 7.2783273e-10 -4.8300652e-18)
(0.020909586 2.6761088e-10 -1.7930362e-11)
(0.020909591 1.317151e-10 7.1275757e-12)
(0.020909591 -3.3763064e-10 5.6586172e-12)
(0.020909585 -2.899012e-10 1.8374601e-11)
(0.01696129 -1.3807735e-09 -1.7741152e-11)
(0.016961316 -1.5129703e-09 2.4247218e-12)
(0.016961316 1.214572e-09 5.9546997e-12)
(0.016961289 1.1127817e-09 1.3606856e-11)
(0.012200078 -5.93365e-09 -1.462789e-11)
(0.012200124 -5.7192169e-09 -7.905581e-13)
(0.012200124 5.7030104e-09 4.438427e-12)
(0.012200079 5.2463291e-09 1.0040503e-11)
(0.0083094672 -1.2179735e-08 -1.0978114e-11)
(0.0083095213 -1.1876093e-08 -2.4607584e-12)
(0.0083095205 1.1850271e-08 2.9390391e-12)
(0.0083094693 1.1365163e-08 7.3462748e-12)
(0.0057328299 -1.8094462e-08 -7.9178736e-12)
(0.0057328774 -1.8005508e-08 -3.4394429e-12)
(0.005732876 1.7672725e-08 1.7711023e-12)
(0.0057328335 1.7457405e-08 4.9289676e-12)
(0.004382723 -2.1899832e-08 -5.5901391e-12)
(0.0043827518 -2.2170007e-08 -3.820379e-12)
(0.0043827499 2.142308e-08 9.8044392e-13)
(0.0043827271 2.1591125e-08 3.0553296e-12)
(0.0039688331 -2.2854701e-08 -3.8911001e-12)
(0.0039688401 -2.3424644e-08 -3.6091785e-12)
(0.0039688379 2.2364097e-08 4.9050763e-13)
(0.0039688365 2.2829839e-08 1.8022233e-12)
(0.0041998028 -2.1330578e-08 -2.6877136e-12)
(0.0041997919 -2.2008154e-08 -3.0895768e-12)
(0.0041997896 2.0859704e-08 2.0200361e-13)
(0.0041998048 2.1415646e-08 1.0356694e-12)
(0.0048609757 -1.82331e-08 -1.863984e-12)
(0.004860954 -1.8794741e-08 -2.4863957e-12)
(0.0048609517 1.7801759e-08 2.1747455e-14)
(0.0048609763 1.8221357e-08 5.8567171e-13)
(0.0058205818 -1.4466703e-08 -1.4467329e-12)
(0.0058205557 -1.4726735e-08 -1.9202128e-12)
(0.0058205535 1.4081715e-08 -9.1104709e-14)
(0.0058205814 1.4184269e-08 3.2852078e-13)
(0.007009705 -1.0677997e-08 -1.1247915e-12)
(0.007009679 -1.0511986e-08 -1.4348789e-12)
(0.0070096767 1.0336499e-08 -1.520564e-13)
(0.0070097039 1.0005656e-08 1.9191998e-13)
(0.0083991864 -7.2260494e-09 -8.7475327e-13)
(0.0083991628 -6.5616982e-09 -1.0457426e-12)
(0.0083991606 6.9174635e-09 -1.8170046e-13)
(0.0083991849 6.0905034e-09 1.2898672e-13)
(0.0099817512 -4.2490333e-09 -7.5974687e-13)
(0.0099817309 -3.0483299e-09 -7.4919333e-13)
(0.0099817287 3.9595107e-09 -2.3330011e-13)
(0.0099817495 2.6067661e-09 1.1152357e-13)
(0.011760673 -1.753695e-09 -6.9134458e-13)
(0.011760656 4.206604e-12 -5.2835865e-13)
(0.011760654 1.4700196e-09 -2.7233823e-13)
(0.011760671 -4.2406816e-10 1.0029969e-13)
(0.013743697 3.1080411e-10 -6.4184574e-13)
(0.013743683 2.6423302e-09 -3.6619419e-13)
(0.013743681 -5.9943305e-10 -2.9676641e-13)
(0.013743695 -3.0487294e-09 1.0252605e-13)
(0.015940376 2.0072381e-09 -5.9829196e-13)
(0.015940365 4.9312935e-09 -2.4807342e-13)
(0.015940362 -2.3085642e-09 -3.0762921e-13)
(0.015940374 -5.3315496e-09 1.0783585e-13)
(0.01836124 3.3888237e-09 -5.5491398e-13)
(0.018361231 6.9289747e-09 -1.6269205e-13)
(0.018361228 -3.7076332e-09 -3.0797356e-13)
(0.018361238 -7.3290584e-09 1.1105059e-13)
(0.021017745 4.4936236e-09 -5.1003587e-13)
(0.021017738 8.6772728e-09 -1.0131557e-13)
(0.021017735 -4.8322214e-09 -2.9967651e-13)
(0.021017743 -9.0815285e-09 1.1205736e-13)
(0.023922404 5.3468799e-09 -4.6281856e-13)
(0.023922399 1.0203002e-08 -5.7454487e-14)
(0.023922395 -5.7055872e-09 -2.8538866e-13)
(0.023922402 -1.0614128e-08 1.1061248e-13)
(0.027088861 5.9657634e-09 -4.1425514e-13)
(0.027088859 1.1522282e-08 -2.6542481e-14)
(0.027088855 -6.3434392e-09 -2.6744545e-13)
(0.02708886 -1.1941499e-08 1.070352e-13)
(0.030531843 6.3636591e-09 -3.6580822e-13)
(0.030531842 1.2644979e-08 -5.1529338e-15)
(0.030531838 -6.7582388e-09 -2.4481352e-13)
(0.030531842 -1.3072294e-08 1.0179362e-13)
(0.034267003 6.5530368e-09 -3.1866774e-13)
(0.034267004 1.3577862e-08 9.2408801e-15)
(0.034266999 -6.9617786e-09 -2.1653398e-13)
(0.034267002 -1.4012339e-08 9.5284165e-14)
(0.038310718 6.5468733e-09 -2.7392652e-13)
(0.038310721 1.4326269e-08 1.8301087e-14)
(0.038310716 -6.9665971e-09 -1.889574e-13)
(0.038310717 -1.4766325e-08 8.7703545e-14)
(0.042679864 6.3590876e-09 -2.3258143e-13)
(0.042679869 1.489467e-08 2.3410549e-14)
(0.042679864 -6.7865352e-09 -1.6275575e-13)
(0.042679864 -1.5338344e-08 7.9418537e-14)
(0.047391599 6.0044764e-09 -1.9506738e-13)
(0.047391606 1.5286625e-08 2.5664418e-14)
(0.0473916 -6.4365007e-09 -1.3825319e-13)
(0.0473916 -1.5731813e-08 7.0803605e-14)
(0.052463161 5.4985198e-09 -1.6168127e-13)
(0.05246317 1.5504546e-08 2.5922973e-14)
(0.052463164 -5.9322107e-09 -1.1592337e-13)
(0.052463162 -1.594917e-08 6.2197181e-14)
(0.057911683 4.857243e-09 -1.3252954e-13)
(0.057911694 1.5549503e-08 2.4852605e-14)
(0.057911688 -5.2900119e-09 -9.5993865e-14)
(0.057911686 -1.599165e-08 5.3875636e-14)
(0.063754027 4.0972012e-09 -1.0740999e-13)
(0.06375404 1.5421212e-08 2.2949354e-14)
(0.063754033 -4.5268269e-09 -7.8597473e-14)
(0.06375403 -1.5859214e-08 4.6048321e-14)
(0.070006619 3.2355809e-09 -8.6209637e-14)
(0.070006634 1.5118215e-08 2.0580456e-14)
(0.070006627 -3.6602293e-09 -6.3658579e-14)
(0.070006623 -1.5550697e-08 3.8859774e-14)
(0.076685298 2.2903726e-09 -6.8556166e-14)
(0.076685315 1.4638255e-08 1.8025448e-14)
(0.076685308 -2.7085961e-09 -5.1037216e-14)
(0.076685304 -1.5064153e-08 3.239047e-14)
(0.083805162 1.2805701e-09 -5.402404e-14)
(0.083805181 1.3978784e-08 1.547237e-14)
(0.083805173 -1.6912856e-09 -4.0536402e-14)
(0.08380517 -1.4397329e-08 2.6677467e-14)
(0.091380411 2.2633133e-10 -4.2189484e-14)
(0.091380432 1.3137571e-08 1.304688e-14)
(0.091380424 -6.2878056e-10 -3.1908448e-14)
(0.09138042 -1.3548257e-08 2.1715213e-14)
(0.099424193 -8.5094501e-10 -3.2663566e-14)
(0.099424215 1.2113354e-08 1.0832998e-14)
(0.099424207 4.5725392e-10 -2.4816395e-14)
(0.099424203 -1.2515895e-08 1.7474126e-14)
(0.10794844 -1.9286519e-09 -2.5068201e-14)
(0.10794847 1.0906524e-08 8.8640065e-15)
(0.10794846 1.5439954e-09 -1.9111754e-14)
(0.10794846 -1.1300795e-08 1.3902678e-14)
(0.11696373 -2.9831503e-09 -1.9064443e-14)
(0.11696376 9.5197831e-09 7.1529134e-15)
(0.11696375 2.6076432e-09 -1.4583536e-14)
(0.11696375 -9.9057656e-09 1.0935001e-14)
(0.12647909 -3.9900982e-09 -1.436067e-14)
(0.12647912 7.958785e-09 5.6950333e-15)
(0.12647911 3.6237625e-09 -1.1023115e-14)
(0.12647911 -8.336507e-09 8.5008291e-15)
(0.13650189 -4.9249282e-09 -1.0710398e-14)
(0.13650192 6.2327157e-09 4.474694e-15)
(0.13650191 4.5677494e-09 -8.24971e-15)
(0.13650191 -6.6021994e-09 6.5302306e-15)
(0.14703764 -5.7634801e-09 -7.9035767e-15)
(0.14703767 4.3548171e-09 3.4699404e-15)
(0.14703766 5.4154559e-09 -6.1121552e-15)
(0.14703766 -4.7160311e-09 4.9571634e-15)
(0.15808989 -6.4827726e-09 -5.7607208e-15)
(0.15808992 2.3428332e-09 2.6529515e-15)
(0.15808991 6.143956e-09 -4.4788405e-15)
(0.15808991 -2.6956535e-09 3.7150983e-15)
(0.16966007 -7.0618994e-09 -4.1406654e-15)
(0.1696601 2.1937308e-10 2.0007449e-15)
(0.1696601 6.7324333e-09 -3.2440931e-15)
(0.1696601 -5.6355223e-10 2.7435577e-15)
(0.1817474 -7.4830213e-09 -2.9293218e-15)
(0.18174743 -1.9878174e-09 1.4864252e-15)
(0.18174742 7.1631657e-09 -2.3236982e-15)
(0.18174743 1.6526746e-09 1.9995136e-15)
(0.19434874 -7.732421e-09 -2.0289047e-15)
(0.19434877 -4.2456783e-09 1.084031e-15)
(0.19434876 7.4225717e-09 -1.6418515e-15)
(0.19434877 3.9201279e-09 1.4331611e-15)
(0.20745853 -7.801575e-09 -1.3721976e-15)
(0.20745856 -6.5157594e-09 7.7489843e-16)
(0.20745855 7.5022744e-09 -1.1387105e-15)
(0.20745856 6.2005238e-09 1.0082191e-15)
(0.22106871 -7.688182e-09 -9.0111341e-16)
(0.22106874 -8.7542492e-09 5.4106814e-16)
(0.22106873 7.4001224e-09 -7.688226e-16)
(0.22106874 8.4502172e-09 6.923858e-16)
(0.23516866 -7.3970736e-09 -5.6931443e-16)
(0.2351687 -1.0912115e-08 3.6810889e-16)
(0.23516869 7.1210928e-09 -4.9997276e-16)
(0.2351687 1.0620332e-08 4.605447e-16)
(0.24974522 -6.9409128e-09 -3.4426076e-16)
(0.24974525 -1.2935372e-08 2.4405339e-16)
(0.24974524 6.6779806e-09 -3.0567691e-16)
(0.24974525 1.2657022e-08 2.9290928e-16)
(0.26478258 -6.3405623e-09 -1.9181871e-16)
(0.26478261 -1.4765516e-08 1.5682955e-16)
(0.2647826 6.0917567e-09 -1.6974959e-16)
(0.26478262 1.4501895e-08 1.7218683e-16)
(0.28026242 -5.6249843e-09 -8.5993529e-17)
(0.28026245 -1.6340167e-08 9.136307e-17)
(0.28026243 5.3914555e-09 -7.7933491e-17)
(0.28026245 1.6092643e-08 9.1236564e-17)
(0.29616385 -4.8305144e-09 -1.2839997e-17)
(0.29616387 -1.7594035e-08 4.7336588e-17)
(0.29616386 4.6134318e-09 -2.3760789e-17)
(0.29616388 1.7363992e-08 3.8505151e-17)
(0.31246353 -3.9993458e-09 3.4410741e-17)
(0.31246355 -1.8460322e-08 1.7802721e-17)
(0.31246354 3.7998264e-09 1.0120017e-17)
(0.31246356 1.8249094e-08 4.1613332e-18)
(0.32913575 -3.1770768e-09 6.1817191e-17)
(0.32913577 -1.8872814e-08 -3.2007749e-18)
(0.32913576 2.9960917e-09 3.2690949e-17)
(0.32913578 1.8681586e-08 -1.252262e-17)
(0.34615254 -2.4092322e-09 7.8815793e-17)
(0.34615256 -1.8768933e-08 -1.399303e-17)
(0.34615254 2.2474917e-09 3.6452637e-17)
(0.34615257 1.8598641e-08 -2.1730505e-17)