/*--------------------------------*- C++ -*----------------------------------*\
| =========                 |                                                 |
| \\      /  F ield         | OpenFOAM: The Open Source CFD Toolbox           |
|  \\    /   O peration     | Version:  3.0.1                                 |
|   \\  /    A nd           | Web:      www.OpenFOAM.org                      |
|    \\/     M anipulation  |                                                 |
\*---------------------------------------------------------------------------*/
FoamFile
{
    version     2.0;
    format      ascii;
    class       volScalarField;
    location    "275";
    object      p;
}
// * * * * * * * * * * * * * * * * * * * * * * * * * * * * * * * * * * * * * //

dimensions      [0 2 -2 0 0 0 0];

internalField   nonuniform List<scalar> 
480
(
-9.4248951e-08
-7.8211297e-08
-6.0768452e-08
-5.5727875e-08
-7.0150498e-08
-6.821521e-08
-8.8547612e-08
-7.5088262e-08
-6.0225911e-08
-6.6662389e-08
-1.0178896e-07
-8.8800651e-08
-5.696312e-08
-6.4277842e-08
-1.0955819e-07
-1.0203022e-07
-6.3879143e-08
-6.8114242e-08
-1.1020289e-07
-1.0864854e-07
-7.4702766e-08
-7.6500186e-08
-1.0980822e-07
-1.1156097e-07
-8.4643485e-08
-8.5663375e-08
-1.1196319e-07
-1.1455628e-07
-9.3558863e-08
-9.4678709e-08
-1.1558186e-07
-1.17993e-07
-1.0197594e-07
-1.0340287e-07
-1.1929023e-07
-1.2137008e-07
-1.1011576e-07
-1.1173514e-07
-1.2241614e-07
-1.2433028e-07
-1.1794534e-07
-1.1957421e-07
-1.2481375e-07
-1.2673858e-07
-1.2532635e-07
-1.2683886e-07
-1.2659157e-07
-1.2859961e-07
-1.3211706e-07
-1.3347685e-07
-1.27928e-07
-1.2998111e-07
-1.3822283e-07
-1.3946818e-07
-1.2897358e-07
-1.3096458e-07
-1.4360873e-07
-1.4482476e-07
-1.2982752e-07
-1.3162064e-07
-1.4829117e-07
-1.4958294e-07
-1.3053905e-07
-1.320012e-07
-1.5232227e-07
-1.5379543e-07
-1.3112161e-07
-1.3214002e-07
-1.5577389e-07
-1.5752666e-07
-1.3156685e-07
-1.3205705e-07
-1.5872448e-07
-1.6084222e-07
-1.3186084e-07
-1.317637e-07
-1.6124994e-07
-1.6380449e-07
-1.3199195e-07
-1.3126705e-07
-1.6341814e-07
-1.6646983e-07
-1.3195455e-07
-1.3057289e-07
-1.6528657e-07
-1.6888755e-07
-1.3174965e-07
-1.2968783e-07
-1.6690181e-07
-1.7110046e-07
-1.3138615e-07
-1.2862053e-07
-1.6830023e-07
-1.7314413e-07
-1.3087898e-07
-1.2738231e-07
-1.6950939e-07
-1.7504694e-07
-1.3024654e-07
-1.2598737e-07
-1.7054983e-07
-1.7683083e-07
-1.2951031e-07
-1.244528e-07
-1.7143667e-07
-1.7851217e-07
-1.28695e-07
-1.2279841e-07
-1.7218101e-07
-1.8010266e-07
-1.2782699e-07
-1.2104647e-07
-1.7279115e-07
-1.8161004e-07
-1.2693322e-07
-1.1922131e-07
-1.7327353e-07
-1.8303879e-07
-1.260404e-07
-1.1734897e-07
-1.736334e-07
-1.8439059e-07
-1.2517438e-07
-1.154567e-07
-1.7387531e-07
-1.8566476e-07
-1.2435964e-07
-1.1357259e-07
-1.7400355e-07
-1.8685853e-07
-1.2361877e-07
-1.1172503e-07
-1.7402228e-07
-1.8796725e-07
-1.2297212e-07
-1.0994231e-07
-1.739358e-07
-1.889847e-07
-1.2243743e-07
-1.0825212e-07
-1.7374865e-07
-1.8990317e-07
-1.220295e-07
-1.0668117e-07
-1.734657e-07
-1.9071381e-07
-1.2175996e-07
-1.0525474e-07
-1.7309203e-07
-1.9140686e-07
-1.2163713e-07
-1.0399623e-07
-1.7263328e-07
-1.9197196e-07
-1.216659e-07
-1.0292685e-07
-1.7209545e-07
-1.9239863e-07
-1.2184775e-07
-1.0206516e-07
-1.7148513e-07
-1.9267672e-07
-1.2218086e-07
-1.0142672e-07
-1.7080928e-07
-1.9279703e-07
-1.2266027e-07
-1.0102363e-07
-1.7007539e-07
-1.9275205e-07
-1.2327817e-07
-1.0086413e-07
-1.6929139e-07
-1.9253679e-07
-1.2402425e-07
-1.0095203e-07
-1.6846571e-07
-1.9214983e-07
-1.2488614e-07
-1.0128614e-07
-1.676072e-07
-1.9159446e-07
-1.2584986e-07
-1.0185946e-07
-1.6672513e-07
-1.9088008e-07
-1.2690031e-07
-1.0265831e-07
-1.6582913e-07
-1.9002375e-07
-1.2802171e-07
-1.0366114e-07
-1.6492917e-07
-1.8905181e-07
-1.2919786e-07
-1.0483712e-07
-1.6403552e-07
-1.8800161e-07
-1.3041223e-07
-1.0614447e-07
-1.631588e-07
-1.8692304e-07
-1.3164749e-07
-1.0752859e-07
-1.6231013e-07
-1.8587966e-07
-1.3288455e-07
-1.0892011e-07
-1.6150162e-07
-1.8494949e-07
-1.3410055e-07
-1.1023282e-07
-1.6074744e-07
-1.8422575e-07
-1.3526576e-07
-1.1136124e-07
-1.6006524e-07
-1.8381473e-07
-1.3633969e-07
-1.1218119e-07
-1.5947723e-07
-1.8381958e-07
-1.3726798e-07
-1.1256505e-07
-1.5901393e-07
-1.8432052e-07
-1.3797841e-07
-1.1240348e-07
-1.5873714e-07
-1.8548108e-07
-1.3836161e-07
-1.1150572e-07
-1.5878329e-07
-1.8789245e-07
-1.3825086e-07
-1.092653e-07
-1.5928579e-07
-1.9212762e-07
-1.3749764e-07
-1.0512519e-07
-8.2590017e-08
-6.7039479e-08
-5.8030136e-08
-5.4094135e-08
-6.4321773e-08
-6.1747991e-08
-8.0065064e-08
-6.7132792e-08
-5.7011273e-08
-6.4137371e-08
-8.9768082e-08
-7.5853707e-08
-5.1020309e-08
-6.0588862e-08
-9.9715354e-08
-8.9596031e-08
-5.5705276e-08
-6.2259432e-08
-1.028949e-07
-9.816477e-08
-6.5575879e-08
-6.8578658e-08
-1.0468901e-07
-1.0316355e-07
-7.6169161e-08
-7.674982e-08
-1.0806745e-07
-1.0747579e-07
-8.6707622e-08
-8.588629e-08
-1.1223357e-07
-1.1146847e-07
-9.7020455e-08
-9.5457637e-08
-1.1623192e-07
-1.1500559e-07
-1.0688753e-07
-1.0497291e-07
-1.1963794e-07
-1.1805292e-07
-1.1608367e-07
-1.1405285e-07
-1.2238747e-07
-1.2065192e-07
-1.244393e-07
-1.2245318e-07
-1.2457885e-07
-1.2286021e-07
-1.3186309e-07
-1.3005027e-07
-1.2634797e-07
-1.2472561e-07
-1.3833985e-07
-1.3681331e-07
-1.2781205e-07
-1.2627917e-07
-1.4391392e-07
-1.4277248e-07
-1.2904428e-07
-1.2753694e-07
-1.4866776e-07
-1.4799349e-07
-1.3007962e-07
-1.2850542e-07
-1.5270262e-07
-1.5255972e-07
-1.3092785e-07
-1.2918694e-07
-1.5612303e-07
-1.5656004e-07
-1.3158628e-07
-1.2958365e-07
-1.5902797e-07
-1.6008078e-07
-1.3204895e-07
-1.2969991e-07
-1.6150522e-07
-1.6320136e-07
-1.3231233e-07
-1.2954335e-07
-1.6362888e-07
-1.6599217e-07
-1.3237824e-07
-1.2912522e-07
-1.6545914e-07
-1.6851352e-07
-1.3225497e-07
-1.284601e-07
-1.6704312e-07
-1.7081561e-07
-1.3195579e-07
-1.2756551e-07
-1.6841642e-07
-1.7293844e-07
-1.3149903e-07
-1.2646145e-07
-1.6960398e-07
-1.7491208e-07
-1.3090729e-07
-1.2517009e-07
-1.7062503e-07
-1.7676046e-07
-1.3020584e-07
-1.2371544e-07
-1.7149357e-07
-1.7850151e-07
-1.2942107e-07
-1.2212313e-07
-1.7221985e-07
-1.8014816e-07
-1.2857943e-07
-1.2042011e-07
-1.7281156e-07
-1.8170918e-07
-1.2770755e-07
-1.1863446e-07
-1.7327472e-07
-1.8318989e-07
-1.2683171e-07
-1.1679514e-07
-1.7361435e-07
-1.8459269e-07
-1.2597734e-07
-1.1493169e-07
-1.7383494e-07
-1.8591743e-07
-1.2516854e-07
-1.1307389e-07
-1.7394077e-07
-1.8716175e-07
-1.2442763e-07
-1.1125145e-07
-1.7393611e-07
-1.883213e-07
-1.2377472e-07
-1.0949358e-07
-1.7382537e-07
-1.8938999e-07
-1.2322744e-07
-1.0782867e-07
-1.7361324e-07
-1.903602e-07
-1.2280052e-07
-1.0628385e-07
-1.7330477e-07
-1.9122301e-07
-1.2250566e-07
-1.0488463e-07
-1.7290522e-07
-1.9196855e-07
-1.2235127e-07
-1.0365454e-07
-1.7242049e-07
-1.925863e-07
-1.2234247e-07
-1.0261472e-07
-1.7185688e-07
-1.9306551e-07
-1.2248104e-07
-1.0178359e-07
-1.7122108e-07
-1.9339569e-07
-1.2276554e-07
-1.0117642e-07
-1.7052033e-07
-1.9356731e-07
-1.2319147e-07
-1.0080499e-07
-1.697624e-07
-1.9357255e-07
-1.2375161e-07
-1.0067707e-07
-1.689555e-07
-1.9340609e-07
-1.2443632e-07
-1.0079596e-07
-1.6810831e-07
-1.9306619e-07
-1.2523396e-07
-1.0115985e-07
-1.6722987e-07
-1.9255584e-07
-1.261314e-07
-1.0176112e-07
-1.6632961e-07
-1.9188416e-07
-1.2711451e-07
-1.0258538e-07
-1.6541718e-07
-1.9106802e-07
-1.2816858e-07
-1.0361036e-07
-1.6450244e-07
-1.9013367e-07
-1.2927864e-07
-1.0480456e-07
-1.635953e-07
-1.8911837e-07
-1.3042948e-07
-1.061256e-07
-1.6270573e-07
-1.880718e-07
-1.3160526e-07
-1.0751843e-07
-1.6184383e-07
-1.8705692e-07
-1.327883e-07
-1.0891354e-07
-1.6102038e-07
-1.8615041e-07
-1.3395706e-07
-1.1022502e-07
-1.6024806e-07
-1.8544275e-07
-1.3508278e-07
-1.1134845e-07
-1.595433e-07
-1.8503513e-07
-1.3612563e-07
-1.1216184e-07
-1.5892811e-07
-1.8502207e-07
-1.3703194e-07
-1.1254155e-07
-1.5843482e-07
-1.854703e-07
-1.377324e-07
-1.1238486e-07
-1.5812895e-07
-1.8652422e-07
-1.3812898e-07
-1.11513e-07
-1.5815132e-07
-1.8875449e-07
-1.3807192e-07
-1.0932876e-07
-1.5862692e-07
-1.926885e-07
-1.3745947e-07
-1.0530138e-07
)
;

boundaryField
{
    movingWall
    {
        type            zeroGradient;
    }
    CPLReceiveMD
    {
        type            zeroGradient;
    }
    streamwiseIn
    {
        type            cyclic;
    }
    streamwiseOut
    {
        type            cyclic;
    }
    front
    {
        type            cyclic;
    }
    back
    {
        type            cyclic;
    }
    procBoundary1to0
    {
        type            processor;
        value           nonuniform List<scalar> 
240
(
-8.2851414e-08
-6.9347203e-08
-6.3357689e-08
-5.7411253e-08
-6.4937698e-08
-6.3863571e-08
-8.5661226e-08
-7.0558367e-08
-5.8407702e-08
-6.5980992e-08
-9.5286624e-08
-7.9176774e-08
-5.3128049e-08
-6.2187938e-08
-1.0483366e-07
-9.2636577e-08
-5.8215467e-08
-6.3637703e-08
-1.0743136e-07
-1.007926e-07
-6.8178876e-08
-6.9755559e-08
-1.0857185e-07
-1.0533847e-07
-7.8631635e-08
-7.7774837e-08
-1.1129732e-07
-1.0921969e-07
-8.8903172e-08
-8.6754171e-08
-1.1485482e-07
-1.1283438e-07
-9.889244e-08
-9.6172608e-08
-1.1831354e-07
-1.1605637e-07
-1.0842506e-07
-1.0554849e-07
-1.2125916e-07
-1.1884957e-07
-1.1730691e-07
-1.145e-07
-1.2362805e-07
-1.212483e-07
-1.2538627e-07
-1.2278746e-07
-1.2551359e-07
-1.2330155e-07
-1.3257904e-07
-1.3029324e-07
-1.2704395e-07
-1.2504856e-07
-1.3886984e-07
-1.3698674e-07
-1.2832285e-07
-1.2651263e-07
-1.4429858e-07
-1.4289445e-07
-1.294127e-07
-1.2770331e-07
-1.4894121e-07
-1.4807849e-07
-1.3033971e-07
-1.2862188e-07
-1.5289233e-07
-1.526196e-07
-1.3110631e-07
-1.2926659e-07
-1.562512e-07
-1.5660201e-07
-1.3170534e-07
-1.2963656e-07
-1.5911208e-07
-1.6010946e-07
-1.3212616e-07
-1.2973377e-07
-1.615586e-07
-1.6322009e-07
-1.3236093e-07
-1.2956398e-07
-1.6366127e-07
-1.6600348e-07
-1.3240773e-07
-1.2913692e-07
-1.6547745e-07
-1.6851954e-07
-1.3227165e-07
-1.2846597e-07
-1.6705228e-07
-1.70818e-07
-1.3196462e-07
-1.2756773e-07
-1.6841997e-07
-1.7293872e-07
-1.315031e-07
-1.2646152e-07
-1.6960421e-07
-1.7491113e-07
-1.3090833e-07
-1.2516899e-07
-1.7062345e-07
-1.7675889e-07
-1.3020509e-07
-1.2371379e-07
-1.7149114e-07
-1.7849972e-07
-1.2941936e-07
-1.2212132e-07
-1.7221716e-07
-1.8014638e-07
-1.2857744e-07
-1.2041836e-07
-1.7280894e-07
-1.8170755e-07
-1.2770556e-07
-1.186329e-07
-1.7327235e-07
-1.8318846e-07
-1.2682988e-07
-1.167938e-07
-1.7361231e-07
-1.8459148e-07
-1.2597574e-07
-1.1493058e-07
-1.7383324e-07
-1.8591644e-07
-1.2516719e-07
-1.1307299e-07
-1.7393938e-07
-1.8716095e-07
-1.2442652e-07
-1.1125074e-07
-1.73935e-07
-1.8832067e-07
-1.2377383e-07
-1.0949303e-07
-1.7382451e-07
-1.893895e-07
-1.2322673e-07
-1.0782825e-07
-1.7361258e-07
-1.9035982e-07
-1.2279998e-07
-1.0628353e-07
-1.7330426e-07
-1.9122272e-07
-1.2250524e-07
-1.0488439e-07
-1.7290484e-07
-1.9196833e-07
-1.2235095e-07
-1.0365436e-07
-1.7242021e-07
-1.9258613e-07
-1.2234223e-07
-1.0261459e-07
-1.7185667e-07
-1.9306538e-07
-1.2248086e-07
-1.0178349e-07
-1.7122093e-07
-1.9339559e-07
-1.2276541e-07
-1.0117635e-07
-1.7052023e-07
-1.9356724e-07
-1.2319138e-07
-1.0080493e-07
-1.6976232e-07
-1.935725e-07
-1.2375155e-07
-1.0067703e-07
-1.6895545e-07
-1.9340605e-07
-1.2443627e-07
-1.0079593e-07
-1.6810827e-07
-1.9306616e-07
-1.2523392e-07
-1.0115983e-07
-1.6722985e-07
-1.9255582e-07
-1.2613138e-07
-1.0176111e-07
-1.6632959e-07
-1.9188415e-07
-1.2711449e-07
-1.0258536e-07
-1.6541717e-07
-1.9106801e-07
-1.2816857e-07
-1.0361035e-07
-1.6450243e-07
-1.9013366e-07
-1.2927863e-07
-1.0480455e-07
-1.6359529e-07
-1.8911836e-07
-1.3042948e-07
-1.0612559e-07
-1.6270572e-07
-1.8807179e-07
-1.3160525e-07
-1.0751843e-07
-1.6184382e-07
-1.8705692e-07
-1.327883e-07
-1.0891353e-07
-1.6102038e-07
-1.8615041e-07
-1.3395706e-07
-1.1022502e-07
-1.6024806e-07
-1.8544275e-07
-1.3508278e-07
-1.1134845e-07
-1.595433e-07
-1.8503513e-07
-1.3612563e-07
-1.1216184e-07
-1.5892811e-07
-1.8502206e-07
-1.3703194e-07
-1.1254155e-07
-1.5843482e-07
-1.854703e-07
-1.377324e-07
-1.1238486e-07
-1.5812895e-07
-1.8652422e-07
-1.3812899e-07
-1.11513e-07
-1.5815132e-07
-1.8875449e-07
-1.3807192e-07
-1.0932875e-07
-1.5862692e-07
-1.926885e-07
-1.3745947e-07
-1.0530138e-07
)
;
    }
    procBoundary1to0throughback
    {
        type            processorCyclic;
        value           nonuniform List<scalar> 
240
(
1.5194483e-09
-4.5511178e-09
-1.5779686e-08
-2.4963119e-08
-4.0619692e-08
-5.7462731e-08
-7.1947449e-08
-8.4281379e-08
-9.5199549e-08
-1.051518e-07
-1.1429744e-07
-1.226385e-07
-1.3013337e-07
-1.3675859e-07
-1.4252944e-07
-1.4749767e-07
-1.5174077e-07
-1.5534985e-07
-1.5841755e-07
-1.6103023e-07
-1.6326334e-07
-1.6517927e-07
-1.6682772e-07
-1.6824776e-07
-1.6947232e-07
-1.7052373e-07
-1.7141836e-07
-1.7216823e-07
-1.727823e-07
-1.7326745e-07
-1.7362925e-07
-1.7387252e-07
-1.7400168e-07
-1.7402106e-07
-1.7393502e-07
-1.7374816e-07
-1.7346541e-07
-1.7309187e-07
-1.7263322e-07
-1.7209547e-07
-1.7148516e-07
-1.7080932e-07
-1.7007542e-07
-1.6929142e-07
-1.6846574e-07
-1.6760723e-07
-1.6672515e-07
-1.6582915e-07
-1.6492918e-07
-1.6403553e-07
-1.6315881e-07
-1.6231014e-07
-1.6150163e-07
-1.6074745e-07
-1.6006525e-07
-1.5947723e-07
-1.5901393e-07
-1.5873714e-07
-1.5878329e-07
-1.5928579e-07
-6.2628988e-08
-5.1803532e-08
-5.020102e-08
-4.8731803e-08
-5.4098204e-08
-6.4385774e-08
-7.5504808e-08
-8.6351861e-08
-9.6714308e-08
-1.0645819e-07
-1.1547519e-07
-1.2369647e-07
-1.3109522e-07
-1.3768246e-07
-1.434996e-07
-1.4860954e-07
-1.5308819e-07
-1.5701703e-07
-1.6047694e-07
-1.6354375e-07
-1.6628516e-07
-1.6875886e-07
-1.710117e-07
-1.7308209e-07
-1.7500385e-07
-1.768011e-07
-1.784918e-07
-1.8008879e-07
-1.8160068e-07
-1.8303253e-07
-1.8438646e-07
-1.8566207e-07
-1.868568e-07
-1.8796617e-07
-1.8898404e-07
-1.8990278e-07
-1.907136e-07
-1.9140675e-07
-1.9197192e-07
-1.9239863e-07
-1.9267674e-07
-1.9279706e-07
-1.9275208e-07
-1.9253682e-07
-1.9214986e-07
-1.9159449e-07
-1.908801e-07
-1.9002376e-07
-1.8905182e-07
-1.8800162e-07
-1.8692305e-07
-1.8587967e-07
-1.8494949e-07
-1.8422576e-07
-1.8381473e-07
-1.8381958e-07
-1.8432052e-07
-1.8548108e-07
-1.8789245e-07
-1.9212763e-07
-5.2118962e-08
-7.9673376e-08
-9.2973598e-08
-1.0119978e-07
-1.0260893e-07
-1.0310283e-07
-1.0616666e-07
-1.1066346e-07
-1.1518778e-07
-1.1904711e-07
-1.2208533e-07
-1.2440872e-07
-1.2619919e-07
-1.2761883e-07
-1.2877732e-07
-1.2973333e-07
-1.3050913e-07
-1.3110658e-07
-1.3151966e-07
-1.3174275e-07
-1.317752e-07
-1.3162303e-07
-1.3129815e-07
-1.3081825e-07
-1.3020493e-07
-1.294822e-07
-1.2867595e-07
-1.2781392e-07
-1.2692426e-07
-1.2603429e-07
-1.2517024e-07
-1.2435686e-07
-1.2361693e-07
-1.2297092e-07
-1.2243667e-07
-1.2202902e-07
-1.2175968e-07
-1.2163697e-07
-1.2166582e-07
-1.2184772e-07
-1.2218086e-07
-1.2266029e-07
-1.2327819e-07
-1.2402428e-07
-1.2488616e-07
-1.2584988e-07
-1.2690033e-07
-1.2802173e-07
-1.2919788e-07
-1.3041224e-07
-1.316475e-07
-1.3288455e-07
-1.3410056e-07
-1.3526576e-07
-1.363397e-07
-1.3726798e-07
-1.3797842e-07
-1.3836161e-07
-1.3825086e-07
-1.3749764e-07
-4.3445609e-08
-6.2588557e-08
-7.5871461e-08
-8.9127048e-08
-9.6421616e-08
-1.0051794e-07
-1.0499015e-07
-1.0997724e-07
-1.1482704e-07
-1.1910123e-07
-1.2263202e-07
-1.2542143e-07
-1.2755192e-07
-1.2912783e-07
-1.3024509e-07
-1.3097979e-07
-1.3138738e-07
-1.3150652e-07
-1.3136399e-07
-1.3097907e-07
-1.3036708e-07
-1.2954197e-07
-1.28518e-07
-1.2731078e-07
-1.2593789e-07
-1.2441887e-07
-1.2277534e-07
-1.2103093e-07
-1.1921094e-07
-1.1734212e-07
-1.1545224e-07
-1.1356973e-07
-1.1172323e-07
-1.0994119e-07
-1.0825146e-07
-1.066808e-07
-1.0525454e-07
-1.0399614e-07
-1.0292683e-07
-1.0206518e-07
-1.0142675e-07
-1.0102366e-07
-1.0086416e-07
-1.0095207e-07
-1.0128617e-07
-1.0185949e-07
-1.0265833e-07
-1.0366116e-07
-1.0483713e-07
-1.0614448e-07
-1.075286e-07
-1.0892012e-07
-1.1023283e-07
-1.1136125e-07
-1.1218119e-07
-1.1256505e-07
-1.1240348e-07
-1.1150572e-07
-1.092653e-07
-1.0512519e-07
)
;
    }
}


// ************************************************************************* //
