/*--------------------------------*- C++ -*----------------------------------*\
| =========                 |                                                 |
| \\      /  F ield         | OpenFOAM: The Open Source CFD Toolbox           |
|  \\    /   O peration     | Version:  3.0.1                                 |
|   \\  /    A nd           | Web:      www.OpenFOAM.org                      |
|    \\/     M anipulation  |                                                 |
\*---------------------------------------------------------------------------*/
FoamFile
{
    version     2.0;
    format      ascii;
    class       surfaceScalarField;
    location    "275";
    object      phi;
}
// * * * * * * * * * * * * * * * * * * * * * * * * * * * * * * * * * * * * * //

dimensions      [0 3 -1 0 0 0 0];

internalField   nonuniform List<scalar> 
1072
(
-0.48070426
3.359566e-07
-4.4887975e-09
-0.48070459
3.7353962e-07
-7.0797288e-09
-0.48070425
-3.2011838e-07
-7.9297202e-10
-3.3724365e-07
-4.7961622e-09
-0.24055628
1.2668198e-06
1.0287462e-08
-0.24055722
1.3039249e-06
-3.6226114e-09
-0.24055627
-1.2830483e-06
-1.3215569e-09
-1.2612804e-06
-4.3951763e-09
-0.063261833
2.1551463e-06
1.2838816e-08
-0.063262748
2.2166182e-06
-5.2676432e-10
-0.06326188
-2.1935219e-06
-1.8941468e-09
-2.1991604e-06
-4.4875962e-09
0.0087125018
2.7456285e-06
1.0373943e-08
0.0087118475
2.8650447e-06
-1.5188032e-10
0.0087124463
-2.7902685e-06
-1.0326589e-09
-2.8663878e-06
-3.5105656e-09
0.024923393
2.7873015e-06
7.3794185e-09
0.024923262
2.9807811e-06
-5.6803015e-10
0.024923336
-2.8341022e-06
-2.847308e-10
-2.9925584e-06
-2.419843e-09
0.019648164
2.4120705e-06
4.8571596e-09
0.019648476
2.650133e-06
-1.2078514e-09
0.019648132
-2.4625934e-06
2.6197398e-10
-2.6706402e-06
-1.5272302e-09
0.0096145614
1.8659064e-06
3.2846074e-09
0.0096150876
2.1084594e-06
-1.6076003e-09
0.0096145619
-1.922095e-06
4.3761054e-10
-2.1384824e-06
-1.0653013e-09
0.0017205998
1.3238369e-06
2.4429471e-09
0.0017211524
1.5447743e-06
-1.7037789e-09
0.0017206203
-1.3861972e-06
3.7025231e-10
-1.5848458e-06
-9.7095485e-10
-0.0016637233
8.7285964e-07
1.9859685e-09
-0.0016632477
1.062133e-06
-1.5898827e-09
-0.0016636959
-9.4053728e-07
2.250889e-10
-1.1116481e-06
-1.0695655e-09
-5.6021123e-05
5.409773e-07
1.7085912e-09
-5.5662186e-05
6.9920327e-07
-1.3596159e-09
-5.5995172e-05
-6.1242462e-07
1.0016944e-10
-7.5663027e-07
-1.2129251e-09
0.0062988962
3.2457207e-07
1.5010736e-09
0.0062991355
4.5790508e-07
-1.1152257e-09
0.0062989166
-3.9812875e-07
2.9241905e-11
-5.2125407e-07
-1.3162743e-09
0.016930612
2.0563892e-07
1.3155281e-09
0.016930746
3.2247386e-07
-8.8505992e-10
0.016930625
-2.7985503e-07
9.5802259e-12
-3.8971915e-07
-1.3484082e-09
0.031368122
1.6146802e-07
1.1370069e-09
0.031368174
2.7062782e-07
-6.8060285e-10
0.031368127
-2.3520136e-07
2.4349484e-11
-3.3995386e-07
-1.3112316e-09
0.049237705
1.6995493e-07
9.6497649e-10
0.049237696
2.7981335e-07
-5.1541139e-10
0.049237703
-2.423561e-07
5.8105298e-11
-3.4968889e-07
-1.2224341e-09
0.070294627
2.1225426e-07
8.0412493e-10
0.070294576
3.3037396e-07
-3.8985866e-10
0.070294618
-2.8268342e-07
9.8230649e-11
-3.9956419e-07
-1.102185e-09
0.094420616
2.7366959e-07
6.5932896e-10
0.094420539
4.0676129e-07
-2.9691711e-10
0.0944206
-3.4162733e-07
1.3649428e-10
-4.7428365e-07
-9.6894456e-10
0.12160674
3.4348659e-07
5.3365257e-10
0.12160664
4.9753845e-07
-2.2792898e-10
0.12160671
-4.0855429e-07
1.6876721e-10
-5.6259888e-07
-8.3674571e-10
0.15193305
4.142799e-07
4.2800474e-10
0.15193295
5.9470539e-07
-1.7581988e-10
0.15193302
-4.7608645e-07
1.9459565e-10
-6.5667762e-07
-7.1451058e-10
0.18555042
4.8108921e-07
3.4143695e-10
0.18555032
6.9288963e-07
-1.3455202e-10
0.18555038
-5.3929508e-07
2.1469501e-10
-7.5127746e-07
-6.0700983e-10
0.22266607
5.4067997e-07
2.718017e-10
0.22266597
7.8856057e-07
-9.9512977e-11
0.22266603
-5.9497292e-07
2.3016972e-10
-8.4296985e-07
-5.1600327e-10
0.26353273
5.9096936e-07
2.1629845e-10
0.26353264
8.7940057e-07
-7.0876477e-11
0.26353269
-6.4106674e-07
2.4215053e-10
-9.2951672e-07
-4.4122113e-10
0.30844045
6.306204e-07
1.7199804e-10
0.30844036
9.6384466e-07
-4.9183339e-11
0.3084404
-6.7626823e-07
2.4519976e-10
-1.0094149e-06
-3.8118367e-10
0.35771031
6.5877353e-07
1.3678614e-10
0.35771024
1.0407525e-06
-3.1753281e-11
0.35771026
-6.9976029e-07
2.529947e-10
-1.0815836e-06
-3.3384435e-10
0.41168941
6.7488182e-07
1.0877609e-10
0.41168935
1.1092033e-06
-1.6604603e-11
0.41168936
-7.1105283e-07
2.6348107e-10
-1.1451609e-06
-2.9699917e-10
0.47074642
6.7861939e-07
8.5895808e-11
0.47074636
1.1683705e-06
-2.7598943e-12
0.47074636
-7.0987368e-07
2.7433099e-10
-1.1993762e-06
-2.6852337e-10
0.53526759
6.6983553e-07
6.6932058e-11
0.53526754
1.2174491e-06
1.067126e-11
0.53526753
-6.9611895e-07
2.8218523e-10
-1.2434773e-06
-2.4649722e-10
0.60565286
6.4854123e-07
5.0905728e-11
0.60565282
1.2556192e-06
2.4199127e-11
0.6056528
-6.6984833e-07
2.8827067e-10
-1.2766943e-06
-2.2929306e-10
0.68231194
6.1491446e-07
3.7032808e-11
0.68231192
1.2820351e-06
3.8093682e-11
0.68231188
-6.3128823e-07
2.93181e-10
-1.2982283e-06
-2.1558334e-10
0.76566026
5.6931581e-07
2.468567e-11
0.76566025
1.2958299e-06
5.2489035e-11
0.7656602
-5.808454e-07
2.9706988e-10
-1.3072559e-06
-2.0430755e-10
0.85611474
5.1230802e-07
1.3379854e-11
0.85611474
1.2961327e-06
6.7444418e-11
0.85611468
-5.1912561e-07
2.9986947e-10
-1.3029464e-06
-1.9463337e-10
0.95408937
4.4467512e-07
2.7468549e-12
0.95408939
1.2820931e-06
8.2979656e-11
0.95408932
-4.4695241e-07
3.013955e-10
-1.284486e-06
-1.8591754e-10
1.0599907
3.6743788e-07
-7.4827822e-12
1.0599907
1.2529121e-06
9.9092398e-11
1.0599906
-3.6538235e-07
3.0143041e-10
-1.2511088e-06
-1.7767079e-10
1.1742129
2.8186309e-07
-1.7494091e-11
1.1742129
1.2078776e-06
1.157647e-10
1.1742129
-2.7571436e-07
2.9976707e-10
-1.2021324e-06
-1.6952866e-10
1.2971331
1.8946505e-07
-2.739893e-11
1.2971332
1.1464048e-06
1.3296518e-10
1.2971331
-1.794912e-07
2.9623109e-10
-1.1369978e-06
-1.6122805e-10
1.4291064
9.1997552e-08
-3.7267917e-11
1.4291065
1.0680801e-06
1.506481e-10
1.4291064
-7.8491464e-08
2.9069026e-10
-1.0553136e-06
-1.5258841e-10
1.5704607
-8.5646903e-09
-4.7134273e-11
1.5704607
9.7270776e-07
1.68753e-10
1.5704606
2.5289049e-08
2.8305744e-10
-9.5690254e-07
-1.4349744e-10
1.7214917
-1.1005637e-07
-5.7007847e-11
1.7214918
8.6036015e-07
1.8720477e-10
1.7214917
1.2966766e-07
2.7329031e-10
-8.4185148e-07
-1.3389972e-10
1.8824586
-2.1016427e-07
-6.6857867e-11
1.8824587
7.3142898e-07
2.0591544e-10
1.8824586
2.323174e-07
2.6139047e-10
-7.1056265e-07
-1.2378794e-10
2.0535784
-3.0648211e-07
-7.6649897e-11
2.0535786
5.8667729e-07
2.2478437e-10
2.0535785
3.3082216e-07
2.4740158e-10
-5.6380575e-07
-1.1319688e-10
2.2350223
-3.965777e-07
-8.6557214e-11
2.2350225
4.2729096e-07
2.4369252e-10
2.2350224
4.2274413e-07
2.3140694e-10
-4.0276937e-07
-1.0219848e-10
2.4269107
-4.7807331e-07
-9.5921592e-11
2.4269109
2.5492838e-07
2.6249653e-10
2.4269108
5.0570267e-07
2.1352697e-10
-2.2911072e-07
-9.0900982e-11
2.6293097
-5.487324e-07
-1.0507128e-10
2.6293099
7.1767224e-08
2.8106266e-10
2.6293098
5.7746293e-07
1.9391974e-10
-4.5002515e-08
-7.9443356e-11
2.8422275
-6.0655657e-07
-1.1388597e-10
2.8422277
-1.1945265e-07
2.9926561e-10
2.8422277
6.3603165e-07
1.7278232e-10
1.4682416e-07
-6.7993994e-11
3.0656113
-6.4988512e-07
-1.2227184e-10
3.0656115
-3.1539134e-07
3.1697176e-10
3.0656115
6.7975695e-07
1.5034854e-10
3.4304146e-07
-5.6747239e-11
3.2993448
-6.774943e-07
-1.3014198e-10
3.299345
-5.1207594e-07
3.3406407e-10
3.299345
7.0742686e-07
1.2688658e-10
5.3969184e-07
-4.5923654e-11
3.5432463
-6.8868967e-07
-1.3742446e-10
3.5432465
-7.048741e-07
3.5042826e-10
3.5432464
7.1836148e-07
1.0269984e-10
7.3216089e-07
-3.5764256e-11
3.7970674
-6.8338509e-07
-1.4407083e-10
3.7970676
-8.8847522e-07
3.6595659e-10
3.7970676
7.1249104e-07
7.8132769e-11
9.1515774e-07
-2.6524833e-11
4.0604926
-6.6215939e-07
-1.5006922e-10
4.0604928
-1.0568823e-06
3.8058033e-10
4.0604928
6.904114e-07
5.3577762e-11
1.0827058e-06
-1.8439761e-11
4.3331393
-6.2628114e-07
-1.5546519e-10
4.3331394
-1.2034215e-06
3.9426111e-10
4.3331394
6.5340709e-07
2.9477819e-11
1.2281504e-06
-1.1816391e-11
4.6145586
-5.7769e-07
-1.6038806e-10
4.6145587
-1.3207821e-06
4.0696419e-10
4.6145587
6.034304e-07
6.3231211e-12
1.3441971e-06
-6.8415739e-12
4.9042371
-5.1892305e-07
-1.6507744e-10
4.9042372
-1.4011131e-06
4.186114e-10
4.9042373
5.4302514e-07
-1.5361984e-11
1.4230053e-06
-3.6772079e-12
5.2015996
-4.5297484e-07
-1.6990114e-10
5.2015996
-1.4362269e-06
4.2899176e-10
5.2015997
4.7518399e-07
-3.5051288e-11
1.45639e-06
-2.3773453e-12
5.5060117
-3.8308379e-07
-1.7534753e-10
5.5060117
-1.4180015e-06
4.3761126e-10
5.5060117
4.0313301e-07
-5.227135e-11
1.4362228e-06
-2.8283927e-12
5.8167841
-3.1244677e-07
-1.8196082e-10
5.816784
-1.3391632e-06
4.4346484e-10
5.8167841
3.3004659e-07
-6.6661284e-11
1.3552162e-06
-4.6509728e-12
6.1331773
-2.4388621e-07
-1.9018364e-10
6.1331771
-1.1947738e-06
4.4470372e-10
6.1331772
2.587192e-07
-7.7990613e-11
1.2084182e-06
-7.0417519e-12
6.4544065
-1.79539e-07
-2.0008638e-10
6.4544063
-9.8495843e-07
4.3817298e-10
6.4544063
1.9126737e-07
-8.6000705e-11
9.9595618e-07
-8.5570013e-12
6.7796479
-1.2072196e-07
-2.1101302e-10
6.7796477
-7.1947794e-07
4.1896387e-10
6.7796477
1.2902077e-07
-8.9642205e-11
7.2763771e-07
-6.7819983e-12
7.1080449
-6.8270516e-08
-2.2160881e-10
7.1080446
-4.2427916e-07
3.8010548e-10
7.1080446
7.2906919e-08
-8.47638e-11
4.2954261e-07
2.6550528e-12
7.4387146
-2.4252955e-08
-2.3027398e-10
7.4387143
-1.5041066e-07
3.14114e-10
7.4387144
2.5288701e-08
-6.5202326e-11
1.5297165e-07
2.3124546e-11
7.7707556
-2.1429077e-10
7.7707554
1.8242189e-10
7.7707555
-1.24136e-11
5.7306536e-11
-0.4807043
3.4776484e-07
-0.48070463
3.9757863e-07
-0.48070431
-3.3746852e-07
-3.6197523e-07
-0.24055637
1.2666297e-06
-0.24055732
1.3276071e-06
-0.24055638
-1.2787817e-06
-1.2668028e-06
-0.063262063
2.125454e-06
-0.063262966
2.211481e-06
-0.063262127
-2.1486994e-06
-2.162365e-06
0.0087122608
2.7115353e-06
0.0087116171
2.8482114e-06
0.0087121956
-2.7317825e-06
-2.8100561e-06
0.024923148
2.7524099e-06
0.024923036
2.9569703e-06
0.024923083
-2.7696144e-06
-2.9265235e-06
0.01964798
2.382192e-06
0.019648307
2.6269617e-06
0.019647945
-2.4019029e-06
-2.6050197e-06
0.0096144553
1.8433948e-06
0.0096149892
2.0907502e-06
0.0096144542
-1.8701557e-06
-2.0793424e-06
0.001720551
1.308124e-06
0.0017211067
1.5334062e-06
0.0017205703
-1.34393e-06
-1.534051e-06
-0.0016637386
8.623045e-07
-0.0016632622
1.0560446e-06
-0.0016637125
-9.0703128e-07
-1.0688614e-06
-5.6020109e-05
5.3399103e-07
-5.566119e-05
6.9685351e-07
-5.5995522e-05
-5.8627384e-07
-7.2083681e-07
0.0062989034
3.1997112e-07
0.0062991425
4.5792937e-07
0.0062989223
-3.7796335e-07
-4.9145032e-07
0.016930619
2.026381e-07
0.016930754
3.2389549e-07
0.016930631
-2.6447434e-07
-3.6508088e-07
0.031368127
1.5956218e-07
0.031368179
2.7283413e-07
0.031368131
-2.2358734e-07
-3.1980479e-07
0.049237707
1.6881753e-07
0.049237698
2.8243943e-07
0.049237703
-2.3364775e-07
-3.3344839e-07
0.070294624
2.116603e-07
0.070294574
3.3321443e-07
0.070294614
-2.7616972e-07
-3.866999e-07
0.09442061
2.734601e-07
0.094420534
4.0970814e-07
0.094420593
-3.3673297e-07
-4.6430159e-07
0.12160673
3.4354991e-07
0.12160664
5.0052721e-07
0.1216067
-4.0482598e-07
-5.5504245e-07
0.15193304
4.145272e-07
0.15193294
5.9771336e-07
0.15193301
-4.7317311e-07
-6.5113009e-07
0.1855504
4.8144734e-07
0.1855503
6.9591756e-07
0.18555037
-5.3692957e-07
-7.4736537e-07
0.22266605
5.4108656e-07
0.22266596
7.9162106e-07
0.22266602
-5.9295613e-07
-8.4036523e-07
0.26353271
5.9136604e-07
0.26353262
8.8250454e-07
0.26353267
-6.3925445e-07
-9.2793734e-07
0.30844043
6.3096659e-07
0.30844034
9.6699134e-07
0.30844038
-6.7457333e-07
-1.0086221e-06
0.35771029
6.5903369e-07
0.35771022
1.0439265e-06
0.35771024
-6.9812233e-07
-1.0813783e-06
0.41168939
6.7501932e-07
0.41168932
1.1123802e-06
0.41168934
-7.0942573e-07
-1.1453787e-06
0.4707464
6.786118e-07
0.47074634
1.1715295e-06
0.47074634
-7.0822575e-07
-1.199882e-06
0.53526756
6.69667e-07
0.53526752
1.220568e-06
0.5352675
-6.9443599e-07
-1.2441603e-06
0.60565284
6.4820194e-07
0.6056528
1.2586749e-06
0.60565277
-6.6813167e-07
-1.2774637e-06
0.68231192
6.144e-07
0.68231189
1.2850034e-06
0.68231186
-6.2954629e-07
-1.2990084e-06
0.76566024
5.6862665e-07
0.76566022
1.2986856e-06
0.76566018
-5.7909106e-07
-1.3079833e-06
0.85611471
5.1144905e-07
0.85611471
1.2988499e-06
0.85611465
-5.1737501e-07
-1.3035666e-06
0.95408935
4.4365533e-07
0.95408936
1.2846448e-06
0.95408929
-4.4522424e-07
-1.2849514e-06
1.0599907
3.662701e-07
1.0599907
1.2552705e-06
1.0599906
-3.6369748e-07
-1.2513775e-06
1.1742129
2.805639e-07
1.1742129
1.2100145e-06
1.1742128
-2.7409547e-07
-1.2021668e-06
1.2971331
1.8805465e-07
1.2971332
1.1482917e-06
1.2971331
-1.7796241e-07
-1.1367642e-06
1.4291064
9.0499643e-08
1.4291065
1.0696884e-06
1.4291064
-7.7077962e-08
-1.0547817e-06
1.5704606
-1.0122986e-08
1.5704607
9.7400927e-07
1.5704606
2.656149e-08
-9.5604565e-07
1.7214917
-1.1164495e-07
1.7214918
8.6132778e-07
1.7214917
1.3077319e-07
-8.4064659e-07
1.8824586
-2.1175025e-07
1.8824587
7.3203714e-07
1.8824586
2.3323066e-07
-7.089907e-07
2.0535784
-3.0803045e-07
2.0535786
5.8690264e-07
2.0535785
3.3151888e-07
-5.6185209e-07
2.2350223
-3.9805253e-07
2.2350225
4.2711316e-07
2.2350224
4.2320182e-07
-4.0042427e-07
2.4269107
-4.7943683e-07
2.4269109
2.5433076e-07
2.4269108
5.0590138e-07
-2.2636998e-07
2.6293097
-5.4994703e-07
2.6293099
7.0737857e-08
2.6293098
5.7738606e-07
-4.1868263e-08
2.8422275
-6.0758681e-07
2.8422277
-1.2091866e-07
2.8422277
6.3566602e-07
1.5034297e-07
3.0656113
-6.5069763e-07
3.0656115
-3.1729306e-07
3.0656115
6.7909497e-07
3.4692802e-07
3.2993448
-6.7806013e-07
3.299345
-5.1440413e-07
3.299345
7.0646684e-07
5.439208e-07
3.5432463
-6.8898615e-07
3.5432465
-7.0760987e-07
3.5432465
7.1710858e-07
7.3669734e-07
3.7970674
-6.8339781e-07
3.7970676
-8.9158892e-07
3.7970676
7.1095852e-07
9.1995615e-07
4.0604926
-6.618846e-07
4.0604928
-1.0603323e-06
4.0604928
6.8862177e-07
1.0877089e-06
4.3331393
-6.2572833e-07
4.3331394
-1.2071531e-06
4.3331395
6.5139319e-07
1.2332882e-06
4.6145586
-5.7688457e-07
4.6145587
-1.3247263e-06
4.6145587
6.0123643e-07
1.3493854e-06
4.9042372
-5.1790874e-07
4.9042372
-1.4051868e-06
4.9042373
5.4070721e-07
1.4281452e-06
5.2015996
-4.5181532e-07
5.2015997
-1.4403327e-06
5.2015997
4.7281012e-07
1.461367e-06
5.5060117
-3.8186233e-07
5.5060117
-1.4220301e-06
5.5060118
4.0078211e-07
1.4409077e-06
5.8167841
-3.1126255e-07
5.816784
-1.3429975e-06
5.8167841
3.278064e-07
1.3594669e-06
6.1331773
-2.4284519e-07
6.1331771
-1.198298e-06
6.1331772
2.566842e-07
1.2120864e-06
6.4544065
-1.7873761e-07
6.4544063
-9.8807637e-07
6.4544064
1.8954029e-07
9.9890247e-07
6.779648
-1.202251e-07
6.7796477
-7.2215499e-07
6.7796477
1.2772866e-07
7.2977026e-07
7.1080449
-6.8096178e-08
7.1080446
-4.2664057e-07
7.1080446
7.2255614e-08
4.3092148e-07
7.4387146
-2.438155e-08
7.4387143
-1.5271351e-07
7.4387144
2.5597382e-08
1.5387452e-07
7.7707556
7.7707554
7.7707555
)
;

boundaryField
{
    movingWall
    {
        type            calculated;
        value           uniform 0;
    }
    CPLReceiveMD
    {
        type            calculated;
        value           uniform 0;
    }
    streamwiseIn
    {
        type            cyclic;
        value           nonuniform List<scalar> 
120
(
0.48070391
0.24055533
0.063260969
-0.0087130934
-0.024923459
-0.019647813
-0.0096140307
-0.0017200636
0.001664175
5.6357283e-05
-0.0062986743
-0.016930487
-0.031368073
-0.049237709
-0.070294666
-0.094420674
-0.1216068
-0.15193312
-0.18555048
-0.22266613
-0.26353278
-0.30844048
-0.35771034
-0.41168943
-0.47074642
-0.53526758
-0.60565284
-0.68231191
-0.76566021
-0.85611468
-0.9540893
-1.0599906
-1.1742128
-1.297133
-1.4291063
-1.5704605
-1.7214916
-1.8824585
-2.0535783
-2.2350222
-2.4269106
-2.6293097
-2.8422275
-3.0656113
-3.2993448
-3.5432463
-3.7970674
-4.0604926
-4.3331393
-4.6145586
-4.9042372
-5.2015997
-5.5060118
-5.8167842
-6.1331773
-6.4544066
-6.779648
-7.1080449
-7.4387147
-7.7707556
0.48070397
0.24055543
0.063261219
-0.0087128457
-0.024923203
-0.019647629
-0.0096139326
-0.0017200275
0.0016641763
5.6342611e-05
-0.0062986938
-0.016930505
-0.031368087
-0.049237719
-0.070294669
-0.094420673
-0.1216068
-0.15193311
-0.18555047
-0.22266611
-0.26353276
-0.30844047
-0.35771032
-0.41168941
-0.4707464
-0.53526755
-0.60565281
-0.68231188
-0.76566019
-0.85611465
-0.95408928
-1.0599906
-1.1742128
-1.297133
-1.4291063
-1.5704605
-1.7214916
-1.8824585
-2.0535783
-2.2350222
-2.4269106
-2.6293097
-2.8422275
-3.0656113
-3.2993448
-3.5432463
-3.7970674
-4.0604926
-4.3331393
-4.6145586
-4.9042372
-5.2015997
-5.5060118
-5.8167842
-6.1331774
-6.4544066
-6.779648
-7.1080449
-7.4387147
-7.7707556
)
;
    }
    streamwiseOut
    {
        type            cyclic;
        value           nonuniform List<scalar> 
120
(
-0.48070391
-0.24055533
-0.063260969
0.0087130934
0.024923459
0.019647813
0.0096140307
0.0017200636
-0.001664175
-5.6357283e-05
0.0062986743
0.016930487
0.031368073
0.049237709
0.070294666
0.094420674
0.1216068
0.15193312
0.18555048
0.22266613
0.26353278
0.30844048
0.35771034
0.41168943
0.47074642
0.53526758
0.60565284
0.68231191
0.76566021
0.85611468
0.9540893
1.0599906
1.1742128
1.297133
1.4291063
1.5704605
1.7214916
1.8824585
2.0535783
2.2350222
2.4269106
2.6293097
2.8422275
3.0656113
3.2993448
3.5432463
3.7970674
4.0604926
4.3331393
4.6145586
4.9042372
5.2015997
5.5060118
5.8167842
6.1331773
6.4544066
6.779648
7.1080449
7.4387147
7.7707556
-0.48070397
-0.24055543
-0.063261219
0.0087128457
0.024923203
0.019647629
0.0096139326
0.0017200275
-0.0016641763
-5.6342611e-05
0.0062986938
0.016930505
0.031368087
0.049237719
0.070294669
0.094420673
0.1216068
0.15193311
0.18555047
0.22266611
0.26353276
0.30844047
0.35771032
0.41168941
0.4707464
0.53526755
0.60565281
0.68231188
0.76566019
0.85611465
0.95408928
1.0599906
1.1742128
1.297133
1.4291063
1.5704605
1.7214916
1.8824585
2.0535783
2.2350222
2.4269106
2.6293097
2.8422275
3.0656113
3.2993448
3.5432463
3.7970674
4.0604926
4.3331393
4.6145586
4.9042372
5.2015997
5.5060118
5.8167842
6.1331774
6.4544066
6.779648
7.1080449
7.4387147
7.7707556
)
;
    }
    front
    {
        type            cyclic;
        value           nonuniform 0();
    }
    back
    {
        type            cyclic;
        value           nonuniform 0();
    }
    procBoundary1to0
    {
        type            processor;
        value           nonuniform List<scalar> 
240
(
-4.656567e-09
-6.8034007e-09
1.4867568e-10
-4.1898477e-09
9.8532885e-09
-3.7228594e-09
4.2102309e-11
-4.1982563e-09
1.2777295e-08
-5.9805659e-10
-6.0937296e-10
-4.0602522e-09
1.0640876e-08
-3.0943919e-10
1.1358732e-10
-3.1839012e-09
7.8015857e-09
-7.6037205e-10
6.9821741e-10
-2.1941714e-09
5.2900704e-09
-1.4058673e-09
1.0774045e-09
-1.3936769e-09
3.6299336e-09
-1.784202e-09
1.0946063e-09
-1.0048356e-09
2.7038789e-09
-1.8442461e-09
8.8501361e-10
-9.6175444e-10
2.2078829e-09
-1.6873499e-09
6.1765009e-10
-1.0922257e-09
1.8953007e-09
-1.4257186e-09
3.9160777e-10
-1.2525803e-09
1.649024e-09
-1.1427797e-09
2.3964158e-10
-1.3627305e-09
1.4258464e-09
-8.8565612e-10
1.5692619e-10
-1.3953458e-09
1.2142861e-09
-6.7326961e-10
1.2452027e-10
-1.3551484e-09
1.015362e-09
-5.0797978e-10
1.2351623e-10
-1.2617267e-09
8.3393409e-10
-3.8408125e-10
1.3849774e-10
-1.136408e-09
6.7453046e-10
-2.9300483e-10
1.5903317e-10
-9.9828428e-10
5.3923361e-10
-2.4206518e-10
1.7914121e-10
-8.6166788e-10
4.2739747e-10
-1.9798707e-10
1.9712629e-10
-7.3556025e-10
3.370451e-10
-1.5734152e-10
2.1254389e-10
-6.2471657e-10
2.6524694e-10
-1.1990496e-10
2.2550882e-10
-5.3084013e-10
2.0874076e-10
-8.6789076e-11
2.3636831e-10
-4.5359675e-10
1.64403e-10
-6.2161625e-11
2.4571835e-10
-3.914497e-10
1.2959281e-10
-4.2703736e-11
2.487514e-10
-3.4230683e-10
1.0229809e-10
-2.5870232e-11
2.5766973e-10
-3.0393481e-10
8.0289999e-11
-1.056614e-11
2.6935827e-10
-2.7417992e-10
6.2246314e-11
4.157389e-12
2.7814707e-10
-2.5109006e-10
4.7106292e-11
1.8822308e-11
2.8493926e-10
-2.3300615e-10
3.4032057e-11
3.3699873e-11
2.9052348e-10
-2.1857094e-10
2.2369417e-11
4.8928265e-11
2.9500402e-10
-2.0670058e-10
1.1627031e-11
6.4578682e-11
2.9830297e-10
-1.9654151e-10
1.4430859e-12
8.0687257e-11
3.0023452e-10
-1.8743199e-10
-8.4381107e-12
9.7269001e-11
3.0058674e-10
-1.7886696e-10
-1.8185104e-11
1.1432245e-10
2.9916409e-10
-1.7046865e-10
-2.7893329e-11
1.3183108e-10
2.9580598e-10
-1.6196285e-10
-3.7618763e-11
1.4976185e-10
2.9039373e-10
-1.5315962e-10
-4.7382124e-11
1.6806518e-10
2.8285195e-10
-1.4393881e-10
-5.7182855e-11
1.8667498e-10
2.7314811e-10
-1.3423855e-10
-6.698216e-11
2.0551074e-10
2.6129145e-10
-1.2404611e-10
-7.6739571e-11
2.2447809e-10
2.4733151e-10
-1.1339196e-10
-8.6634417e-11
2.4346307e-10
2.3135593e-10
-1.0234446e-10
-9.5975307e-11
2.6232658e-10
2.1348845e-10
-9.1009077e-11
-1.0511156e-10
2.8093837e-10
1.9388942e-10
-7.9522516e-11
-1.1391666e-10
2.9917606e-10
1.7275734e-10
-6.8051259e-11
-1.2229562e-10
3.169083e-10
1.5032719e-10
-5.6788065e-11
-1.3016076e-10
3.3402001e-10
1.2686795e-10
-4.5952363e-11
-1.3743952e-10
3.5039838e-10
1.0268334e-10
-3.578403e-11
-1.4408302e-10
3.6593689e-10
7.811807e-11
-2.6538079e-11
-1.5007919e-10
3.8056778e-10
5.3564757e-11
-1.8451575e-11
-1.5547342e-10
3.9425355e-10
2.9466447e-11
-1.1823383e-11
-1.603949e-10
4.0695997e-10
6.3133636e-12
-6.8451954e-12
-1.6508301e-10
4.1860942e-10
-1.5370356e-11
-3.6786019e-12
-1.6990571e-10
4.2899106e-10
-3.5058511e-11
-2.3772306e-12
-1.7535139e-10
4.3761118e-10
-5.2277323e-11
-2.8273762e-12
-1.8196403e-10
4.4346493e-10
-6.6666132e-11
-4.6494517e-12
-1.901864e-10
4.4470396e-10
-7.7994458e-11
-7.040064e-12
-2.0008882e-10
4.3817334e-10
-8.6003737e-11
-8.5553713e-12
-2.1101514e-10
4.1896402e-10
-8.964363e-11
-6.7806273e-12
-2.216108e-10
3.8010565e-10
-8.476495e-11
2.6560879e-12
-2.3027569e-10
3.1411401e-10
-6.5203148e-11
2.3125146e-11
-2.1429186e-10
1.8242165e-10
-1.2414031e-11
5.7306543e-11
)
;
    }
    procBoundary1to0throughback
    {
        type            processorCyclic;
        value           nonuniform List<scalar> 
240
(
-2.9492227e-08
-9.0537608e-09
1.6898452e-10
2.7997377e-09
4.5664556e-09
5.6304282e-09
5.4118222e-09
4.5079695e-09
3.425362e-09
2.4199562e-09
1.6115817e-09
1.0161771e-09
6.0849644e-10
3.45423e-10
1.8509032e-10
9.0037408e-11
2.9016642e-11
-4.3238254e-12
-2.1307023e-11
-2.8129311e-11
-2.4755985e-11
-2.9509249e-11
-3.0032843e-11
-1.9916561e-11
-1.6957785e-11
-1.3734825e-11
-1.0075669e-11
-5.8402662e-12
-9.4930045e-13
4.6283134e-12
1.0884303e-11
1.7782274e-11
2.5264996e-11
3.3255611e-11
4.1677209e-11
5.0451347e-11
5.95014e-11
6.873051e-11
7.8053854e-11
8.7470758e-11
9.6723983e-11
1.056704e-10
1.1433096e-10
1.226013e-10
1.3038534e-10
1.376037e-10
1.4420255e-10
1.501659e-10
1.5553605e-10
1.6043999e-10
1.6511552e-10
1.6992909e-10
1.7536804e-10
1.8197596e-10
1.9019489e-10
2.0009523e-10
2.1102023e-10
2.2161486e-10
2.3027924e-10
2.1429439e-10
-6.4125266e-09
-5.9848596e-09
-5.4279255e-09
-3.8684166e-09
-2.1030069e-09
-5.1816223e-10
5.5919942e-10
1.3265552e-09
1.5856025e-09
1.5653191e-09
1.4118592e-09
1.2124095e-09
1.0139219e-09
8.3639267e-10
6.8592829e-10
5.6137257e-10
4.5872614e-10
3.7369188e-10
3.0270577e-10
2.425791e-10
1.9088022e-10
1.4441961e-10
1.1029512e-10
8.5978185e-11
5.8831231e-11
3.3900449e-11
1.0762051e-11
-1.0950358e-11
-3.157637e-11
-5.1423473e-11
-7.0757715e-11
-8.9797647e-11
-1.0871242e-10
-1.2762351e-10
-1.4660712e-10
-1.6569863e-10
-1.8489745e-10
-2.0417296e-10
-2.2346853e-10
-2.4269886e-10
-2.6174655e-10
-2.8049673e-10
-2.9883855e-10
-3.1664948e-10
-3.3382086e-10
-3.5024468e-10
-3.6581787e-10
-3.8047545e-10
-3.941818e-10
-4.0690414e-10
-4.1856586e-10
-4.2895708e-10
-4.3758467e-10
-4.4344421e-10
-4.4468733e-10
-4.3815981e-10
-4.1895257e-10
-3.8009585e-10
-3.1410626e-10
-1.8241738e-10
-2.3115343e-09
1.6677415e-09
3.8421878e-09
3.2721648e-09
2.4320045e-09
1.6844794e-09
1.2832459e-09
1.124515e-09
1.054634e-09
9.8276663e-10
8.7894058e-10
7.467551e-10
6.0187399e-10
4.5813696e-10
3.2600379e-10
2.1113523e-10
1.1512533e-10
3.655347e-11
-2.7095467e-11
-7.864419e-11
-1.2047762e-10
-1.5395168e-10
-1.8268039e-10
-2.0577388e-10
-2.2482558e-10
-2.435833e-10
-2.5652875e-10
-2.6751428e-10
-2.767298e-10
-2.8397251e-10
-2.8909417e-10
-2.9197892e-10
-2.9254255e-10
-2.9072995e-10
-2.8651378e-10
-2.7989417e-10
-2.7089929e-10
-2.5958641e-10
-2.4604259e-10
-2.3038493e-10
-2.1275963e-10
-1.9334459e-10
-1.7235192e-10
-1.5002697e-10
-1.2664671e-10
-1.0252109e-10
-7.7999749e-11
-5.3479008e-11
-2.9404605e-11
-6.2688206e-12
1.540225e-11
3.5081254e-11
5.2293733e-11
6.6678095e-11
7.8003255e-11
8.6010192e-11
8.9648323e-11
8.4768435e-11
6.5206047e-11
1.2415835e-11
-8.016659e-09
-4.1007632e-09
-5.4701362e-10
4.4410238e-10
5.9664091e-10
5.4539294e-10
6.734272e-10
9.7538649e-10
1.3173872e-09
1.592865e-09
1.7533759e-09
1.7953435e-09
1.7396564e-09
1.6150315e-09
1.451656e-09
1.2735113e-09
1.0974797e-09
9.3444158e-10
7.9030285e-10
6.6722371e-10
5.6488278e-10
4.8150449e-10
4.1460052e-10
3.6149219e-10
3.196391e-10
2.8672286e-10
2.6073278e-10
2.3999871e-10
2.2315883e-10
2.0911502e-10
1.9699423e-10
1.8611243e-10
1.7594323e-10
1.6609111e-10
1.562691e-10
1.4628022e-10
1.3600257e-10
1.2537704e-10
1.143984e-10
1.0310766e-10
9.1589249e-11
7.9964898e-11
6.8389681e-11
5.7047833e-11
4.6152261e-11
3.5938348e-11
2.6657437e-11
1.8543949e-11
1.1895304e-11
6.9010265e-12
3.7218939e-12
2.4108547e-12
2.8535754e-12
4.6698839e-12
7.0559773e-12
8.5678195e-12
6.7903929e-12
-2.64831e-12
-2.3119039e-11
-5.7303167e-11
)
;
    }
}


// ************************************************************************* //
