/*--------------------------------*- C++ -*----------------------------------*\
| =========                 |                                                 |
| \\      /  F ield         | OpenFOAM: The Open Source CFD Toolbox           |
|  \\    /   O peration     | Version:  3.0.1                                 |
|   \\  /    A nd           | Web:      www.OpenFOAM.org                      |
|    \\/     M anipulation  |                                                 |
\*---------------------------------------------------------------------------*/
FoamFile
{
    version     2.0;
    format      ascii;
    class       volVectorField;
    location    "275";
    object      U;
}
// * * * * * * * * * * * * * * * * * * * * * * * * * * * * * * * * * * * * * //

dimensions      [0 1 -1 0 0 0 0];

internalField   nonuniform List<vector> 
480
(
(-0.030282446 2.0171907e-09 1.1337187e-11)
(-0.030282495 2.1090583e-09 -6.0967575e-13)
(-0.030282493 -1.8628292e-09 -2.3923762e-11)
(-0.030282448 -1.8559035e-09 -1.113827e-11)
(-0.01515403 1.1975583e-08 1.1808271e-11)
(-0.015154162 1.2290204e-08 1.7258285e-11)
(-0.015154159 -1.190015e-08 -2.1676204e-11)
(-0.015154032 -1.1674335e-08 4.0393699e-12)
(-0.0039851793 2.7732055e-08 7.6999537e-12)
(-0.0039853122 2.8394669e-08 2.5650966e-11)
(-0.0039853065 -2.8166582e-08 -1.7597603e-11)
(-0.0039851912 -2.7920922e-08 1.1218914e-11)
(0.00054890272 4.0432319e-08 3.2323283e-12)
(0.00054880373 4.1890394e-08 2.8278693e-11)
(0.00054880866 -4.1118731e-08 -1.3464603e-11)
(0.00054889033 -4.1768175e-08 1.4318753e-11)
(0.0015700914 4.5730212e-08 -9.6420357e-13)
(0.0015700595 4.8292052e-08 2.7935643e-11)
(0.0015700646 -4.6487726e-08 -9.8554526e-12)
(0.0015700783 -4.8402117e-08 1.5944031e-11)
(0.0012377437 4.2359118e-08 -3.5910273e-12)
(0.0012377699 4.5910003e-08 2.5981882e-11)
(0.0012377744 -4.3157504e-08 -6.8042599e-12)
(0.0012377345 -4.6175494e-08 1.6548973e-11)
(0.00060565173 3.4200869e-08 -4.6017265e-12)
(0.00060570723 3.8119833e-08 2.288966e-11)
(0.00060571092 -3.5064804e-08 -4.3178547e-12)
(0.00060564753 -3.8531232e-08 1.6206188e-11)
(0.00010836048 2.5059062e-08 -4.5259305e-12)
(0.00010842159 2.8786852e-08 1.9688321e-11)
(0.00010842447 -2.6008763e-08 -2.3429063e-12)
(0.00010835976 -2.9352228e-08 1.5097325e-11)
(-0.00010483473 1.6977832e-08 -3.8251593e-12)
(-0.00010478124 2.0240108e-08 1.6605437e-11)
(-0.00010477909 -1.8013262e-08 -8.3840172e-13)
(-0.0001048337 -2.0958155e-08 1.3487716e-11)
(-3.5494448e-06 1.0738231e-08 -2.8617318e-12)
(-3.5088045e-06 1.3479898e-08 1.3755326e-11)
(-3.5072869e-06 -1.1842984e-08 2.4778819e-13)
(-3.5478325e-06 -1.4334075e-08 1.1641488e-11)
(0.00039679197 6.4431589e-09 -1.8696967e-12)
(0.00039681916 8.7305492e-09 1.1238378e-11)
(0.00039682012 -7.5936496e-09 9.8423017e-13)
(0.00039679352 -9.6935853e-09 9.7714863e-12)
(0.001066554 3.8706847e-09 -9.7303599e-13)
(0.0010665693 5.825865e-09 9.0766219e-12)
(0.0010665698 -5.0433466e-09 1.446065e-12)
(0.0010665551 -6.8663171e-09 8.0222596e-12)
(0.0019760648 2.6698838e-09 -2.2964281e-13)
(0.0019760709 4.4330966e-09 7.2512435e-12)
(0.0019760709 -3.8445631e-09 1.6775923e-12)
(0.0019760654 -5.5204527e-09 6.4731048e-12)
(0.0031017812 2.4702368e-09 3.3223209e-13)
(0.0031017808 4.1798555e-09 5.7352642e-12)
(0.0031017804 -3.6310853e-09 1.742089e-12)
(0.0031017814 -5.2877488e-09 5.1547565e-12)
(0.0044282863 2.9403242e-09 7.0874429e-13)
(0.0044282815 4.7234714e-09 4.4998786e-12)
(0.0044282809 -4.0753112e-09 1.6918071e-12)
(0.0044282859 -5.8301876e-09 4.0654446e-12)
(0.0059481296 3.813114e-09 9.1488431e-13)
(0.0059481224 5.7830333e-09 3.5007166e-12)
(0.0059481214 -4.9129714e-09 1.565324e-12)
(0.0059481288 -6.8707483e-09 3.184902e-12)
(0.0076607484 4.8892474e-09 9.807694e-13)
(0.0076607401 7.1463499e-09 2.6928628e-12)
(0.0076607387 -5.9464922e-09 1.3947622e-12)
(0.0076607472 -8.2008203e-09 2.4842009e-12)
(0.0095711863 6.0281787e-09 9.5346492e-13)
(0.009571178 8.6625267e-09 2.0626816e-12)
(0.0095711763 -7.0364293e-09 1.2070227e-12)
(0.0095711849 -9.6724861e-09 1.9333034e-12)
(0.011688947 7.1349736e-09 8.7555061e-13)
(0.01168894 1.0228865e-08 1.5849034e-12)
(0.011688938 -8.0885183e-09 1.0216327e-12)
(0.011688946 -1.1185433e-08 1.5040808e-12)
(0.014027087 8.1473237e-09 7.7651788e-13)
(0.01402708 1.1777568e-08 1.2269903e-12)
(0.014027078 -9.0409613e-09 8.5146481e-13)
(0.014027085 -1.2673721e-08 1.1714129e-12)
(0.016601524 9.0250053e-09 6.6915122e-13)
(0.016601519 1.3264378e-08 9.5888333e-13)
(0.016601516 -9.8540221e-09 7.0275724e-13)
(0.016601522 -1.4094543e-08 9.138711e-13)
(0.019430532 9.7422069e-09 5.5522923e-13)
(0.019430528 1.4659981e-08 7.5361714e-13)
(0.019430525 -1.0502371e-08 5.7576654e-13)
(0.01943053 -1.5419715e-08 7.1401414e-13)
(0.022534339 1.0282333e-08 4.5113366e-13)
(0.022534337 1.5943903e-08 5.919819e-13)
(0.022534333 -1.0969984e-08 4.5847817e-13)
(0.022534337 -1.6629718e-08 5.5857065e-13)
(0.025934808 1.0634708e-08 3.5958821e-13)
(0.025934808 1.7100408e-08 4.6388233e-13)
(0.025934803 -1.1246977e-08 3.5792946e-13)
(0.025934806 -1.7709752e-08 4.3768947e-13)
(0.029655165 1.0792653e-08 2.8205788e-13)
(0.029655167 1.8115995e-08 3.6399095e-13)
(0.029655162 -1.1327547e-08 2.7631915e-13)
(0.029655164 -1.8647219e-08 3.4366262e-13)
(0.033719743 1.0752481e-08 2.1805866e-13)
(0.033719747 1.897791e-08 2.8609499e-13)
(0.033719741 -1.1208798e-08 2.1145633e-13)
(0.033719742 -1.9430219e-08 2.7039769e-13)
(0.038153736 1.0513078e-08 1.6631227e-13)
(0.038153742 1.9673332e-08 2.2514191e-13)
(0.038153736 -1.0890371e-08 1.6043922e-13)
(0.038153736 -2.0046741e-08 2.1313895e-13)
(0.042982954 1.0075887e-08 1.2523863e-13)
(0.042982963 2.0189041e-08 1.7727609e-13)
(0.042982956 -1.0374471e-08 1.1913153e-13)
(0.042982955 -2.0484326e-08 1.6817651e-13)
(0.048233568 9.4450966e-09 9.3158418e-14)
(0.04823358 2.0511389e-08 1.3961642e-13)
(0.048233572 -9.6660333e-09 8.7330247e-14)
(0.048233569 -2.073004e-08 1.3277113e-13)
(0.053931841 8.6279462e-09 6.8483957e-14)
(0.053931856 2.0626494e-08 1.0991651e-13)
(0.053931847 -8.7730031e-09 6.3314106e-14)
(0.053931844 -2.0770661e-08 1.0480235e-13)
(0.060103855 7.6350468e-09 4.9777102e-14)
(0.060103872 2.0520578e-08 8.6439976e-14)
(0.060103863 -7.7066433e-09 4.538267e-14)
(0.060103859 -2.059302e-08 8.2644101e-14)
(0.066775218 6.4806652e-09 3.5792482e-14)
(0.066775238 2.0180416e-08 6.7849173e-14)
(0.066775228 -6.4818166e-09 3.2168985e-14)
(0.066775224 -2.0184441e-08 6.5050232e-14)
(0.073970765 5.1829285e-09 2.547929e-14)
(0.073970788 1.9593859e-08 5.3112395e-14)
(0.073970778 -5.1171884e-09 2.2560135e-14)
(0.073970773 -1.9533276e-08 5.1060734e-14)
(0.081714253 3.7639184e-09 1.7975138e-14)
(0.08171428 1.8750449e-08 4.1426038e-14)
(0.081714268 -3.6353187e-09 1.5668448e-14)
(0.081714263 -1.8629504e-08 3.9935874e-14)
(0.090028047 2.2496231e-09 1.259146e-14)
(0.090028077 1.7642079e-08 3.2165995e-14)
(0.090028064 -2.0626156e-09 1.0794176e-14)
(0.090028059 -1.7465401e-08 3.1095692e-14)
(0.098932805 6.6972327e-10 8.7852005e-15)
(0.098932837 1.6263721e-08 2.4839406e-14)
(0.098932824 -4.2912779e-10 7.3986689e-15)
(0.09893282 -1.6036258e-08 2.4082019e-14)
(0.10844717 -9.4279116e-10 6.1283288e-15)
(0.1084472 1.4614196e-08 1.905832e-14)
(0.10844719 1.2318407e-09 5.0689285e-15)
(0.10844718 -1.4341161e-08 1.8532089e-14)
(0.11858744 -2.5521772e-09 4.2994987e-15)
(0.11858748 1.2696984e-08 1.4514793e-14)
(0.11858746 2.8843083e-09 3.4969371e-15)
(0.11858746 -1.2383786e-08 1.415274e-14)
(0.12936731 -4.120729e-09 3.0570653e-15)
(0.12936735 1.0521047e-08 1.0960438e-14)
(0.12936734 4.4903908e-09 2.4538876e-15)
(0.12936734 -1.017323e-08 1.0713519e-14)
(0.14079756 -5.6097621e-09 2.2229598e-15)
(0.1407976 8.1016542e-09 8.1974287e-15)
(0.14079759 6.0112745e-09 1.7736803e-15)
(0.14079759 -7.724839e-09 8.0271101e-15)
(0.15288577 -6.9807706e-09 1.6780816e-15)
(0.15288582 5.4611976e-09 6.0648039e-15)
(0.1528858 7.4083855e-09 1.3324208e-15)
(0.1528858 -5.0610117e-09 5.9446621e-15)
(0.16563611 -8.1967652e-09 1.3134502e-15)
(0.16563616 2.6299566e-09 4.4326927e-15)
(0.16563614 8.6447259e-09 1.0468942e-15)
(0.16563614 -2.2119748e-09 4.3472766e-15)
(0.17904909 -9.223745e-09 1.0633963e-15)
(0.17904914 -3.5320959e-10 3.1928924e-15)
(0.17904912 9.6863469e-09 8.6254995e-16)
(0.17904913 7.8350393e-10 3.1329239e-15)
(0.19312139 -1.003227e-08 8.8582564e-16)
(0.19312144 -3.4401779e-09 2.2627869e-15)
(0.19312142 1.0503919e-08 7.388589e-16)
(0.19312143 3.8774681e-09 2.2191414e-15)
(0.20784567 -1.0599062e-08 7.5449097e-16)
(0.20784572 -6.5729967e-09 1.5718245e-15)
(0.2078457 1.1074327e-08 6.4714629e-16)
(0.20784572 7.0121998e-09 1.5426146e-15)
(0.2232105 -1.0908549e-08 6.5137915e-16)
(0.22321055 -9.6834516e-09 1.0671135e-15)
(0.22321053 1.1382204e-08 5.7558676e-16)
(0.22321055 1.0119739e-08 1.044555e-15)
(0.23920023 -1.0954255e-08 5.6383854e-16)
(0.23920028 -1.2692675e-08 7.0461079e-16)
(0.23920026 1.1421318e-08 5.1465348e-16)
(0.23920028 1.3121511e-08 6.8317707e-16)
(0.25579498 -1.0739913e-08 4.8839383e-16)
(0.25579503 -1.5510911e-08 4.4957982e-16)
(0.25579501 1.1195665e-08 4.5693579e-16)
(0.25579503 1.5928077e-08 4.2809694e-16)
(0.27297064 -1.0280154e-08 4.2325041e-16)
(0.27297069 -1.80375e-08 2.7157307e-16)
(0.27297067 1.0720133e-08 4.008227e-16)
(0.27297069 1.8439088e-08 2.5282599e-16)
(0.29069895 -9.6005995e-09 3.654518e-16)
(0.29069899 -2.0161206e-08 1.5232779e-16)
(0.29069897 1.0020568e-08 3.4506608e-16)
(0.290699 2.0543588e-08 1.3196766e-16)
(0.30894756 -8.7371697e-09 3.0887281e-16)
(0.3089476 -2.1761166e-08 7.3005645e-17)
(0.30894758 9.1330471e-09 2.9664794e-16)
(0.3089476 2.2120924e-08 5.1963346e-17)
(0.32768022 -7.7344244e-09 2.5982814e-16)
(0.32768026 -2.2708949e-08 2.7368399e-17)
(0.32768023 8.1021713e-09 2.5560897e-16)
(0.32768027 2.3042775e-08 -1.9831594e-18)
(0.34685699 -6.6427845e-09 2.2222482e-16)
(0.34685702 -2.2872881e-08 5.019299e-18)
(0.34685699 6.9782575e-09 2.1184947e-16)
(0.34685702 2.317745e-08 -3.426635e-17)
(0.36643442 -5.5146181e-09 1.8833149e-16)
(0.36643445 -2.2127098e-08 -2.5143665e-18)
(0.36643442 5.813407e-09 1.7219523e-16)
(0.36643445 2.2398938e-08 -5.2069579e-17)
(0.38636595 -4.399215e-09 1.6193042e-16)
(0.38636596 -2.0368799e-08 -7.9888852e-18)
(0.38636593 4.6565338e-09 1.3689862e-16)
(0.38636597 2.0604228e-08 -5.814601e-17)
(0.40660212 -3.3365847e-09 1.4120234e-16)
(0.40660213 -1.7544736e-08 -1.2912232e-17)
(0.4066021 3.547347e-09 1.0838719e-16)
(0.40660214 1.774002e-08 -5.601693e-17)
(0.42709106 -2.3512372e-09 1.2064545e-16)
(0.42709106 -1.3690136e-08 -1.9477395e-17)
(0.42709103 2.5103769e-09 8.812329e-17)
(0.42709106 1.3842111e-08 -4.7161882e-17)
(0.44777877 -1.4567209e-09 1.0779566e-16)
(0.44777877 -9.0393825e-09 -1.9218934e-17)
(0.44777874 1.5605413e-09 6.3312467e-17)
(0.44777877 9.1460791e-09 -3.5212246e-17)
(0.46860966 -6.8819979e-10 8.4459064e-17)
(0.46860965 -4.3219877e-09 -8.6655192e-18)
(0.46860963 7.3248659e-10 3.9444199e-17)
(0.46860966 4.3854246e-09 -1.978008e-17)
(0.48952693 -1.8725208e-10 4.065566e-17)
(0.48952692 -1.1014083e-09 6.6653334e-18)
(0.48952692 1.9856198e-10 1.5723344e-17)
(0.48952693 1.1218888e-09 -7.6322188e-19)
(-0.030282449 1.9217782e-09 -1.0951674e-09)
(-0.030282498 2.2694842e-09 -5.5119429e-10)
(-0.030282496 -1.9946183e-09 -1.0696165e-10)
(-0.030282452 -2.0587912e-09 -5.1945114e-10)
(-0.015154036 1.197181e-08 8.6929762e-10)
(-0.015154169 1.2664789e-08 -3.7011325e-10)
(-0.015154165 -1.1982591e-08 7.851674e-11)
(-0.015154039 -1.1928677e-08 -3.4157466e-10)
(-0.0039851948 2.7449475e-08 1.4278068e-09)
(-0.0039853259 2.8556345e-08 -1.8618955e-10)
(-0.0039853202 -2.7802028e-08 1.6630499e-10)
(-0.0039852078 -2.7702104e-08 -1.687681e-10)
(0.00054888699 3.9918137e-08 1.4142201e-09)
(0.00054878919 4.1700648e-08 -7.4835981e-11)
(0.00054879413 -4.0289091e-08 1.8055882e-10)
(0.00054887404 -4.1024623e-08 -6.8768814e-11)
(0.0015700751 4.5196349e-08 1.199816e-09)
(0.0015700451 4.7966198e-08 -7.398239e-12)
(0.0015700502 -4.550666e-08 1.7026122e-10)
(0.0015700616 -4.7428692e-08 -1.0015665e-11)
(0.0012377317 4.1831475e-08 9.4441559e-10)
(0.0012377592 4.551528e-08 3.2961344e-11)
(0.0012377636 -4.2131748e-08 1.533059e-10)
(0.0012377225 -4.5104469e-08 2.4845051e-11)
(0.00060564506 3.3777898e-08 7.2092246e-10)
(0.00060570093 3.7778939e-08 5.5422682e-11)
(0.0006057045 -3.4147972e-08 1.347049e-10)
(0.00060564108 -3.7518002e-08 4.4825489e-11)
(0.00010835773 2.4758802e-08 5.4367058e-10)
(0.00010841862 2.8550876e-08 6.5528748e-11)
(0.00010842136 -2.5252376e-08 1.1617434e-10)
(0.00010835723 -2.8468159e-08 5.4430072e-11)
(-0.00010483525 1.677745e-08 4.068214e-10)
(-0.00010478224 2.0103425e-08 6.7387992e-11)
(-0.00010478023 -1.7411907e-08 9.8626173e-11)
(-0.00010483406 -2.0212341e-08 5.6788081e-11)
(-3.5489148e-06 1.0607831e-08 3.0262559e-10)
(-3.5088019e-06 1.3417357e-08 6.4191623e-11)
(-3.507437e-06 -1.1373218e-08 8.26434e-11)
(-3.5471862e-06 -1.3711456e-08 5.4569733e-11)
(0.00039679285 6.3588366e-09 2.2424838e-10)
(0.00039681955 8.7167545e-09 5.8296994e-11)
(0.00039682036 -7.2306429e-09 6.8535183e-11)
(0.00039679448 -9.1755268e-09 4.9845549e-11)
(0.0010665548 3.8164209e-09 1.6585643e-10)
(0.0010665698 5.8413995e-09 5.1258323e-11)
(0.0010665701 -4.7656063e-09 5.6381916e-11)
(0.001066556 -6.4372315e-09 4.4038566e-11)
(0.0019760654 2.6355359e-09 1.2271525e-10)
(0.0019760712 4.4650639e-09 4.4035704e-11)
(0.0019760711 -3.6341003e-09 4.6098155e-11)
(0.0019760661 -5.1680846e-09 3.8011094e-11)
(0.0031017816 2.4493857e-09 9.0923695e-11)
(0.0031017809 4.2205401e-09 3.7150415e-11)
(0.0031017804 -3.4727659e-09 3.7492246e-11)
(0.0031017817 -5.0016235e-09 3.2171382e-11)
(0.0044282864 2.928843e-09 6.7506204e-11)
(0.0044282814 4.7685652e-09 3.0918446e-11)
(0.0044282806 -3.9566895e-09 3.0360439e-11)
(0.004428286 -5.6011569e-09 2.6850375e-11)
(0.0059481294 3.8082207e-09 5.0244468e-11)
(0.0059481221 5.8301575e-09 2.5455966e-11)
(0.0059481209 -4.8239846e-09 2.4491588e-11)
(0.0059481286 -6.6909044e-09 2.2164813e-11)
(0.0076607479 4.889014e-09 3.7497318e-11)
(0.0076607396 7.1942527e-09 2.0777077e-11)
(0.0076607381 -5.8791357e-09 1.9686177e-11)
(0.0076607468 -8.0628151e-09 1.8113657e-11)
(0.0095711857 6.0311981e-09 2.8054219e-11)
(0.0095711773 8.7106362e-09 1.6816813e-11)
(0.0095711755 -6.9844515e-09 1.5769148e-11)
(0.0095711843 -9.5694358e-09 1.4670035e-11)
(0.011688947 7.1401027e-09 2.1033668e-11)
(0.011688939 1.0277102e-08 1.3497221e-11)
(0.011688937 -8.0471174e-09 1.2590009e-11)
(0.011688945 -1.1111099e-08 1.1788502e-11)
(0.014027086 8.1535716e-09 1.5795025e-11)
(0.014027079 1.1826113e-08 1.0743909e-11)
(0.014027077 -9.0065067e-09 1.002193e-11)
(0.014027084 -1.2622581e-08 9.4076902e-12)
(0.016601523 9.0314713e-09 1.1871528e-11)
(0.016601518 1.3313468e-08 8.4895632e-12)
(0.016601515 -9.8238426e-09 7.9581135e-12)
(0.016601521 -1.4061793e-08 7.4607716e-12)
(0.019430531 9.7481436e-09 8.9316714e-12)
(0.019430527 1.4709727e-08 6.6648922e-12)
(0.019430524 -1.0474666e-08 6.3080981e-12)
(0.019430529 -1.540125e-08 5.8827224e-12)
(0.022534337 1.0287154e-08 6.7167472e-12)
(0.022534335 1.5994189e-08 5.1855205e-12)
(0.022534331 -1.094361e-08 4.9831045e-12)
(0.022534336 -1.6622086e-08 4.6127359e-12)
(0.025934806 1.0637857e-08 5.0317517e-12)
(0.025934806 1.7150929e-08 3.9927599e-12)
(0.025934802 -1.1221108e-08 3.9083495e-12)
(0.025934805 -1.7710086e-08 3.5968237e-12)
(0.029655164 1.0793669e-08 3.7670267e-12)
(0.029655166 1.8166394e-08 3.0575496e-12)
(0.02965516 -1.1301573e-08 3.0403267e-12)
(0.029655162 -1.8653156e-08 2.7900054e-12)
(0.033719741 1.0751061e-08 2.8203353e-12)
(0.033719746 1.9027847e-08 2.3320995e-12)
(0.03371974 -1.118236e-08 2.3536054e-12)
(0.03371974 -1.9439818e-08 2.1539193e-12)
(0.038153734 1.0509021e-08 2.1117942e-12)
(0.038153741 1.972245e-08 1.7726798e-12)
(0.038153734 -1.086337e-08 1.8112198e-12)
(0.038153734 -2.0058411e-08 1.6555625e-12)
(0.042982953 1.0069079e-08 1.5817629e-12)
(0.042982962 2.0236963e-08 1.3436238e-12)
(0.042982955 -1.0346987e-08 1.3855414e-12)
(0.042982953 -2.0496753e-08 1.267418e-12)
(0.048233566 9.4355066e-09 1.1851559e-12)
(0.048233578 2.0557724e-08 1.0160639e-12)
(0.04823357 -9.6382377e-09 1.0560733e-12)
(0.048233568 -2.0742125e-08 9.6686075e-13)
(0.05393184 8.6156162e-09 8.8837094e-13)
(0.053931854 2.0670836e-08 7.6691912e-13)
(0.053931846 -8.7451275e-09 8.0294446e-13)
(0.053931842 -2.0781471e-08 7.353326e-13)
(0.060103854 7.6200859e-09 6.661722e-13)
(0.060103871 2.0562507e-08 5.7798765e-13)
(0.060103862 -7.6789651e-09 6.0930384e-13)
(0.060103858 -2.0601746e-08 5.5779704e-13)
(0.066775216 6.4632446e-09 4.9967747e-13)
(0.066775237 2.0219496e-08 4.3507328e-13)
(0.066775226 -6.4546508e-09 4.616472e-13)
(0.066775222 -2.0190374e-08 4.2220695e-13)
(0.073970764 5.1632805e-09 3.7482779e-13)
(0.073970787 1.9629647e-08 3.2719357e-13)
(0.073970776 -5.0908818e-09 3.4930501e-13)
(0.073970771 -1.9535784e-08 3.190089e-13)
(0.081714252 3.7423354e-09 2.8116743e-13)
(0.081714278 1.8782492e-08 2.4590206e-13)
(0.081714267 -3.6102442e-09 2.6397046e-13)
(0.081714262 -1.8628021e-08 2.4069657e-13)
(0.090028046 2.2264551e-09 2.1085993e-13)
(0.090028075 1.7669922e-08 1.8473783e-13)
(0.090028063 -2.0391663e-09 1.9923339e-13)
(0.090028058 -1.7459417e-08 1.8142203e-13)
(0.098932803 6.4537047e-10 1.5811408e-13)
(0.098932836 1.6286913e-08 1.3877262e-13)
(0.098932823 -4.0770975e-10 1.5017956e-13)
(0.098932818 -1.6025321e-08 1.3665331e-13)
(0.10844716 -9.6787598e-10 1.1854405e-13)
(0.1084472 1.4632297e-08 1.042591e-13)
(0.10844719 1.2508159e-09 1.1304823e-13)
(0.10844718 -1.4324874e-08 1.0290058e-13)
(0.11858744 -2.5774898e-09 8.8870437e-14)
(0.11858748 1.2709574e-08 7.8359586e-14)
(0.11858746 2.900432e-09 8.4972769e-14)
(0.11858746 -1.2361812e-08 7.7487722e-14)
(0.12936731 -4.1457284e-09 6.6681546e-14)
(0.12936735 1.0527732e-08 5.8929561e-14)
(0.12936734 4.5032664e-09 6.3769934e-14)
(0.12936734 -1.01453e-08 5.8371205e-14)
(0.14079756 -5.6338834e-09 5.0098372e-14)
(0.1407976 8.1020801e-09 4.434793e-14)
(0.14079759 6.020528e-09 4.7772844e-14)
(0.14079759 -7.6907562e-09 4.3991585e-14)
(0.15288577 -7.0034254e-09 3.7255039e-14)
(0.15288582 5.4550964e-09 3.3384677e-14)
(0.1528858 7.4136784e-09 3.5720104e-14)
(0.1528858 -5.0206636e-09 3.3159922e-14)
(0.16563611 -8.2173511e-09 2.7634665e-14)
(0.16563616 2.6171522e-09 2.5146543e-14)
(0.16563614 8.6457661e-09 2.6652859e-14)
(0.16563614 -2.1653418e-09 2.5008598e-14)
(0.17904909 -9.2416783e-09 2.0475162e-14)
(0.17904914 -3.7292942e-10 1.8957088e-14)
(0.17904912 9.6828934e-09 1.9843553e-14)
(0.17904913 8.3633664e-10 1.8872883e-14)
(0.19312139 -1.0047001e-08 1.514523e-14)
(0.19312144 -3.4669237e-09 1.4302481e-14)
(0.19312142 1.0495802e-08 1.4740101e-14)
(0.19312143 3.9362982e-09 1.4251812e-14)
(0.20784567 -1.0610089e-08 1.1185944e-14)
(0.20784572 -6.606638e-09 1.0798027e-14)
(0.2078457 1.106147e-08 1.0923146e-14)
(0.20784572 7.0766958e-09 1.0767924e-14)
(0.2232105 -1.0915455e-08 8.2442473e-15)
(0.22321055 -9.7237414e-09 8.1591953e-15)
(0.22321053 1.1364631e-08 8.0777898e-15)
(0.22321055 1.0189427e-08 8.1399996e-15)
(0.23920023 -1.095674e-08 6.0645408e-15)
(0.23920028 -1.2739237e-08 6.1730828e-15)
(0.23920026 1.1399169e-08 5.959046e-15)
(0.23920028 1.3195757e-08 6.1526661e-15)
(0.25579498 -1.0737826e-08 4.4562886e-15)
(0.25579503 -1.556319e-08 4.6733732e-15)
(0.25579501 1.1169219e-08 4.3816635e-15)
(0.25579503 1.600607e-08 4.6523013e-15)
(0.27297065 -1.0273534e-08 3.2704012e-15)
(0.27297069 -1.8094738e-08 3.5393244e-15)
(0.27297067 1.0689823e-08 3.2133733e-15)
(0.27297069 1.8519824e-08 3.5189853e-15)
(0.29069895 -9.5897143e-09 2.3979911e-15)
(0.290699 -2.0222431e-08 2.6824532e-15)
(0.29069897 9.9870004e-09 2.3536287e-15)
(0.290699 2.062585e-08 2.6561677e-15)
(0.30894756 -8.7225618e-09 1.7576777e-15)
(0.3089476 -2.1825179e-08 2.0346246e-15)
(0.30894758 9.0970102e-09 1.7215751e-15)
(0.30894761 2.2203266e-08 2.0003702e-15)
(0.32768022 -7.7169409e-09 1.2869786e-15)
(0.32768026 -2.2774328e-08 1.5474926e-15)
(0.32768024 8.064647e-09 1.2605508e-15)
(0.32768027 2.3123512e-08 1.5022311e-15)
(0.34685699 -6.6235897e-09 9.4206344e-16)
(0.34685702 -2.2937993e-08 1.1823034e-15)
(0.34685699 6.9404167e-09 9.2476848e-16)
(0.34685702 2.3254654e-08 1.1271901e-15)
(0.36643443 -5.4951649e-09 6.9287536e-16)
(0.36643445 -2.219015e-08 9.108489e-16)
(0.36643442 5.7765937e-09 6.8076994e-16)
(0.36643446 2.2470461e-08 8.4371702e-16)
(0.38636595 -4.3811554e-09 5.1284325e-16)
(0.38636597 -2.0427943e-08 7.1692501e-16)
(0.38636594 4.622224e-09 4.9993135e-16)
(0.38636597 2.066773e-08 6.2992625e-16)
(0.40660213 -3.3215863e-09 3.9673936e-16)
(0.40660214 -1.7598193e-08 5.7065489e-16)
(0.40660211 3.517161e-09 3.648167e-16)
(0.40660214 1.7793075e-08 4.7305677e-16)
(0.42709106 -2.3407039e-09 3.151689e-16)
(0.42709106 -1.3736487e-08 4.6676932e-16)
(0.42709103 2.486369e-09 2.6634336e-16)
(0.42709107 1.3882726e-08 3.6074989e-16)
(0.44777877 -1.4514458e-09 2.5867265e-16)
(0.44777877 -9.078396e-09 3.878886e-16)
(0.44777874 1.5448298e-09 1.9539962e-16)
(0.44777877 9.1734621e-09 2.8279338e-16)
(0.46860966 -6.8834178e-10 2.1292027e-16)
(0.46860965 -4.3599329e-09 3.0218448e-16)
(0.46860963 7.3103457e-10 1.4636442e-16)
(0.46860966 4.4035445e-09 2.1934967e-16)
(0.48952693 -1.8849043e-10 1.2845957e-16)
(0.48952692 -1.1175075e-09 1.6274493e-16)
(0.48952692 2.0011833e-10 8.0054176e-17)
(0.48952693 1.1275892e-09 1.1897211e-16)
)
;

boundaryField
{
    movingWall
    {
        type            fixedValue;
        value           uniform (0.5 0 0);
    }
    CPLReceiveMD
    {
        type            fixedValue;
        value           uniform (-0.0095195009 0 0);
    }
    streamwiseIn
    {
        type            cyclic;
    }
    streamwiseOut
    {
        type            cyclic;
    }
    front
    {
        type            cyclic;
    }
    back
    {
        type            cyclic;
    }
    procBoundary1to0
    {
        type            processor;
        value           nonuniform List<vector> 
240
(
(-0.030282449 1.9302018e-09 1.0951674e-09)
(-0.030282498 2.2605602e-09 5.5119429e-10)
(-0.030282496 -1.9892039e-09 1.0696165e-10)
(-0.030282452 -2.0565783e-09 5.1945114e-10)
(-0.015154036 1.2003282e-08 -8.6929762e-10)
(-0.015154169 1.2640245e-08 3.7011325e-10)
(-0.015154165 -1.198487e-08 -7.851674e-11)
(-0.015154039 -1.1934984e-08 3.4157466e-10)
(-0.0039851948 2.75082e-08 -1.4278068e-09)
(-0.0039853259 2.8545403e-08 1.8618955e-10)
(-0.0039853202 -2.7805892e-08 -1.6630499e-10)
(-0.0039852079 -2.7711454e-08 1.687681e-10)
(0.00054888697 3.9970614e-08 -1.4142201e-09)
(0.00054878921 4.1702978e-08 7.4835981e-11)
(0.00054879414 -4.0303814e-08 -1.8055882e-10)
(0.00054887403 -4.1034578e-08 6.8768814e-11)
(0.0015700751 4.5232654e-08 -1.199816e-09)
(0.0015700451 4.7978565e-08 7.398239e-12)
(0.0015700503 -4.552622e-08 -1.7026122e-10)
(0.0015700616 -4.7435834e-08 1.0015665e-11)
(0.0012377317 4.1849537e-08 -9.4441559e-10)
(0.0012377592 4.5535636e-08 -3.2961344e-11)
(0.0012377636 -4.2151331e-08 -1.533059e-10)
(0.0012377225 -4.510582e-08 -2.4845051e-11)
(0.00060564505 3.3782462e-08 -7.2092246e-10)
(0.00060570093 3.7803327e-08 -5.5422682e-11)
(0.00060570451 -3.416523e-08 -1.347049e-10)
(0.00060564108 -3.7513015e-08 -4.4825489e-11)
(0.00010835773 2.4755478e-08 -5.4367058e-10)
(0.00010841862 2.8575043e-08 -6.5528748e-11)
(0.00010842137 -2.5266469e-08 -1.1617434e-10)
(0.00010835723 -2.8458159e-08 -5.4430072e-11)
(-0.00010483525 1.677031e-08 -4.068214e-10)
(-0.00010478224 2.0126268e-08 -6.7387992e-11)
(-0.00010478023 -1.7422673e-08 -9.8626173e-11)
(-0.00010483405 -2.0199309e-08 -5.6788081e-11)
(-3.5489169e-06 1.0599561e-08 -3.0262559e-10)
(-3.508805e-06 1.3438096e-08 -6.4191623e-11)
(-3.5074349e-06 -1.138092e-08 -8.26434e-11)
(-3.5471832e-06 -1.3697255e-08 -5.4569733e-11)
(0.00039679285 6.3509482e-09 -2.2424838e-10)
(0.00039681955 8.7349073e-09 -5.8296994e-11)
(0.00039682036 -7.2357784e-09 -6.8535183e-11)
(0.00039679448 -9.1615767e-09 -4.9845549e-11)
(0.0010665548 3.809638e-09 -1.6585643e-10)
(0.0010665698 5.8569331e-09 -5.1258323e-11)
(0.0010665701 -4.7686371e-09 -5.6381916e-11)
(0.001066556 -6.4244364e-09 -4.4038566e-11)
(0.0019760654 2.6301752e-09 -1.2271525e-10)
(0.0019760712 4.4781314e-09 -4.4035704e-11)
(0.0019760711 -3.6354669e-09 -4.6098155e-11)
(0.0019760661 -5.1569048e-09 -3.8011094e-11)
(0.0031017816 2.4455468e-09 -9.0923695e-11)
(0.0031017809 4.2313352e-09 -3.7150415e-11)
(0.0031017804 -3.4729478e-09 -3.7492246e-11)
(0.0031017817 -4.9921988e-09 -3.2171382e-11)
(0.0044282864 2.9264593e-09 -6.7506204e-11)
(0.0044282814 4.7773559e-09 -3.0918446e-11)
(0.0044282806 -3.9560671e-09 -3.0360439e-11)
(0.004428286 -5.5934214e-09 -2.6850375e-11)
(0.0059481294 3.8070974e-09 -5.0244468e-11)
(0.0059481221 5.8372815e-09 -2.5455966e-11)
(0.0059481209 -4.8228542e-09 -2.4491588e-11)
(0.0059481286 -6.6846793e-09 -2.2164813e-11)
(0.0076607479 4.8888344e-09 -3.7497318e-11)
(0.0076607396 7.1999311e-09 -2.0777077e-11)
(0.0076607381 -5.8777427e-09 -1.9686177e-11)
(0.0076607468 -8.0578782e-09 -1.8113657e-11)
(0.0095711857 6.0315997e-09 -2.8054219e-11)
(0.0095711773 8.7150162e-09 -1.6816813e-11)
(0.0095711755 -6.9829877e-09 -1.5769148e-11)
(0.0095711843 -9.5655639e-09 -1.4670035e-11)
(0.011688947 7.1407955e-09 -2.1033668e-11)
(0.011688939 1.0280408e-08 -1.3497221e-11)
(0.011688937 -8.0457162e-09 -1.2590009e-11)
(0.011688945 -1.1108085e-08 -1.1788502e-11)
(0.014027086 8.1543852e-09 -1.5795025e-11)
(0.014027079 1.1828592e-08 -1.0743909e-11)
(0.014027077 -9.0052469e-09 -1.002193e-11)
(0.014027084 -1.2620244e-08 -9.4076902e-12)
(0.016601523 9.0323463e-09 -1.1871528e-11)
(0.016601518 1.3315343e-08 -8.4895632e-12)
(0.016601515 -9.8227517e-09 -7.9581135e-12)
(0.016601521 -1.4059981e-08 -7.4607716e-12)
(0.019430531 9.749007e-09 -8.9316714e-12)
(0.019430527 1.471118e-08 -6.6648922e-12)
(0.019430524 -1.0473698e-08 -6.3080981e-12)
(0.019430529 -1.5399841e-08 -5.8827224e-12)
(0.022534337 1.0287929e-08 -6.7167472e-12)
(0.022534335 1.5995338e-08 -5.1855205e-12)
(0.022534331 -1.0942746e-08 -4.9831045e-12)
(0.022534336 -1.662099e-08 -4.6127359e-12)
(0.025934806 1.0638528e-08 -5.0317517e-12)
(0.025934806 1.7151833e-08 -3.9927599e-12)
(0.025934802 -1.1220386e-08 -3.9083495e-12)
(0.025934805 -1.7709234e-08 -3.5968237e-12)
(0.029655164 1.0794231e-08 -3.7670267e-12)
(0.029655166 1.8167099e-08 -3.0575496e-12)
(0.02965516 -1.1300992e-08 -3.0403267e-12)
(0.029655162 -1.8652492e-08 -2.7900054e-12)
(0.033719741 1.075152e-08 -2.8203353e-12)
(0.033719746 1.9028397e-08 -2.3320995e-12)
(0.03371974 -1.1181901e-08 -2.3536054e-12)
(0.03371974 -1.94393e-08 -2.1539193e-12)
(0.038153734 1.0509389e-08 -2.1117942e-12)
(0.038153741 1.9722881e-08 -1.7726798e-12)
(0.038153734 -1.0863004e-08 -1.8112198e-12)
(0.038153734 -2.0058005e-08 -1.6555625e-12)
(0.042982953 1.006937e-08 -1.5817629e-12)
(0.042982962 2.0237302e-08 -1.3436238e-12)
(0.042982955 -1.0346697e-08 -1.3855414e-12)
(0.042982953 -2.0496434e-08 -1.267418e-12)
(0.048233566 9.435732e-09 -1.1851559e-12)
(0.048233578 2.0557991e-08 -1.0160639e-12)
(0.04823357 -9.6380165e-09 -1.0560733e-12)
(0.048233568 -2.0741873e-08 -9.6686075e-13)
(0.05393184 8.6157886e-09 -8.8837094e-13)
(0.053931854 2.0671047e-08 -7.6691912e-13)
(0.053931846 -8.7449613e-09 -8.0294446e-13)
(0.053931842 -2.0781271e-08 -7.353326e-13)
(0.060103854 7.6202158e-09 -6.661722e-13)
(0.060103871 2.0562674e-08 -5.7798765e-13)
(0.060103862 -7.6788417e-09 -6.0930384e-13)
(0.060103858 -2.0601588e-08 -5.5779704e-13)
(0.066775216 6.4633412e-09 -4.9967747e-13)
(0.066775237 2.0219628e-08 -4.3507328e-13)
(0.066775226 -6.4545605e-09 -4.616472e-13)
(0.066775222 -2.0190249e-08 -4.2220695e-13)
(0.073970764 5.1633514e-09 -3.7482779e-13)
(0.073970787 1.9629751e-08 -3.2719357e-13)
(0.073970776 -5.0908165e-09 -3.4930501e-13)
(0.073970771 -1.9535685e-08 -3.190089e-13)
(0.081714252 3.7423866e-09 -2.8116743e-13)
(0.081714278 1.8782574e-08 -2.4590206e-13)
(0.081714267 -3.6101977e-09 -2.6397046e-13)
(0.081714262 -1.8627942e-08 -2.4069657e-13)
(0.090028046 2.2264917e-09 -2.1085993e-13)
(0.090028075 1.7669988e-08 -1.8473783e-13)
(0.090028063 -2.0391336e-09 -1.9923339e-13)
(0.090028058 -1.7459354e-08 -1.8142203e-13)
(0.098932803 6.453962e-10 -1.5811408e-13)
(0.098932836 1.6286965e-08 -1.3877262e-13)
(0.098932823 -4.0768711e-10 -1.5017956e-13)
(0.098932818 -1.6025271e-08 -1.3665331e-13)
(0.10844716 -9.6785812e-10 -1.1854405e-13)
(0.1084472 1.4632338e-08 -1.042591e-13)
(0.10844719 1.2508313e-09 -1.1304823e-13)
(0.10844718 -1.4324834e-08 -1.0290058e-13)
(0.11858744 -2.5774776e-09 -8.8870437e-14)
(0.11858748 1.2709607e-08 -7.8359586e-14)
(0.11858746 2.9004423e-09 -8.4972769e-14)
(0.11858746 -1.2361781e-08 -7.7487722e-14)
(0.12936731 -4.1457202e-09 -6.6681546e-14)
(0.12936735 1.0527757e-08 -5.8929561e-14)
(0.12936734 4.5032732e-09 -6.3769934e-14)
(0.12936734 -1.0145275e-08 -5.8371205e-14)
(0.14079756 -5.6338779e-09 -5.0098372e-14)
(0.1407976 8.1020995e-09 -4.434793e-14)
(0.14079759 6.0205325e-09 -4.7772844e-14)
(0.14079759 -7.6907373e-09 -4.3991585e-14)
(0.15288577 -7.0034218e-09 -3.7255039e-14)
(0.15288582 5.4551113e-09 -3.3384677e-14)
(0.1528858 7.4136813e-09 -3.5720104e-14)
(0.1528858 -5.020649e-09 -3.3159922e-14)
(0.16563611 -8.2173487e-09 -2.7634665e-14)
(0.16563616 2.6171636e-09 -2.5146543e-14)
(0.16563614 8.645768e-09 -2.6652859e-14)
(0.16563614 -2.1653307e-09 -2.5008598e-14)
(0.17904909 -9.2416767e-09 -2.0475162e-14)
(0.17904914 -3.729208e-10 -1.8957088e-14)
(0.17904912 9.6828946e-09 -1.9843553e-14)
(0.17904913 8.3634507e-10 -1.8872883e-14)
(0.19312139 -1.0046999e-08 -1.514523e-14)
(0.19312144 -3.4669173e-09 -1.4302481e-14)
(0.19312142 1.0495803e-08 -1.4740101e-14)
(0.19312143 3.9363045e-09 -1.4251812e-14)
(0.20784567 -1.0610088e-08 -1.1185944e-14)
(0.20784572 -6.6066333e-09 -1.0798027e-14)
(0.2078457 1.106147e-08 -1.0923146e-14)
(0.20784572 7.0767005e-09 -1.0767924e-14)
(0.2232105 -1.0915455e-08 -8.2442473e-15)
(0.22321055 -9.7237379e-09 -8.1591953e-15)
(0.22321053 1.1364631e-08 -8.0777898e-15)
(0.22321055 1.0189431e-08 -8.1399996e-15)
(0.23920023 -1.095674e-08 -6.0645409e-15)
(0.23920028 -1.2739234e-08 -6.1730828e-15)
(0.23920026 1.139917e-08 -5.959046e-15)
(0.23920028 1.3195759e-08 -6.1526661e-15)
(0.25579498 -1.0737826e-08 -4.4562886e-15)