/*--------------------------------*- C++ -*----------------------------------*\
| =========                 |                                                 |
| \\      /  F ield         | OpenFOAM: The Open Source CFD Toolbox           |
|  \\    /   O peration     | Version:  3.0.1                                 |
|   \\  /    A nd           | Web:      www.OpenFOAM.org                      |
|    \\/     M anipulation  |                                                 |
\*---------------------------------------------------------------------------*/
FoamFile
{
    version     2.0;
    format      ascii;
    class       surfaceScalarField;
    location    "50";
    object      phi;
}
// * * * * * * * * * * * * * * * * * * * * * * * * * * * * * * * * * * * * * //

dimensions      [0 3 -1 0 0 0 0];

internalField   nonuniform List<scalar> 
1072
(
0.02239046
-1.977696e-07
-6.4798394e-09
0.022390358
8.1061687e-08
6.556502e-09
0.022390458
-1.1721601e-07
-3.8033876e-09
-1.2013215e-07
4.150968e-09
0.11827875
-3.7575314e-08
-1.4288985e-08
0.11827859
2.4301412e-07
3.2998056e-09
0.11827875
-2.4540431e-07
-4.1590493e-09
-2.8479404e-07
3.4270897e-09
0.12131877
-1.3830635e-09
-1.7960976e-08
0.12131873
2.7717355e-07
-3.7402286e-10
0.12131877
-2.5636725e-07
-3.5033517e-09
-3.3434971e-07
3.4292985e-09
0.095414875
-1.2945285e-07
-1.8851957e-08
0.095415013
1.2814136e-07
-2.9265317e-09
0.095414878
-1.0386747e-07
-3.2057166e-09
-2.0208848e-07
3.4121099e-09
0.065563321
-3.9038278e-07
-1.6851296e-08
0.065563617
-1.7126495e-07
-4.1474435e-09
0.065563334
1.7755963e-07
-3.1411989e-09
8.4419612e-08
2.9775611e-09
0.04099623
-6.5944675e-07
-1.3828493e-08
0.040996555
-4.9211198e-07
-4.2542152e-09
0.040996254
4.6488503e-07
-3.1999067e-09
3.9675761e-07
2.5429794e-09
0.023920488
-8.502315e-07
-1.0810194e-08
0.023920742
-7.3656105e-07
-3.7699482e-09
0.023920515
6.7309555e-07
-3.1850231e-09
6.3681946e-07
1.9886361e-09
0.013544177
-9.3161893e-07
-8.2114464e-09
0.013544317
-8.646289e-07
-3.0565111e-09
0.013544202
7.7152863e-07
-3.0303576e-09
7.6398115e-07
1.4442288e-09
0.0080912829
-9.1212048e-07
-6.140008e-09
0.0080913121
-8.806441e-07
-2.3320139e-09
0.0080913018
7.6845342e-07
-2.7518329e-09
7.8171175e-07
9.9007826e-10
0.0057621546
-8.2007621e-07
-4.5603496e-09
0.0057620985
-8.1241571e-07
-1.7046864e-09
0.0057621664
6.9170659e-07
-2.3992235e-09
7.1691932e-07
6.4996754e-10
0.0051192961
-6.8829232e-07
-3.3892008e-09
0.0051191885
-6.9434e-07
-1.2104148e-09
0.0051193017
5.7363472e-07
-2.0233542e-09
6.032006e-07
4.1701259e-10
0.0051775076
-5.4496804e-07
-2.5346301e-09
0.0051773788
-5.5707139e-07
-8.4399989e-10
0.0051775084
4.4215191e-07
-1.6617879e-09
4.7058848e-07
2.7009002e-10
0.0053553089
-4.0985601e-07
-1.9127951e-09
0.0053551814
-4.2287008e-07
-5.8536662e-10
0.0053553066
3.1693543e-07
-1.3371133e-09
3.4092463e-07
1.8468662e-10
0.0053741468
-2.939094e-07
-1.4644472e-09
0.0053740339
-3.0482124e-07
-4.0889899e-10
0.0053741428
2.090529e-07
-1.0598222e-09
2.2705698e-07
1.3893987e-10
0.0051523362
-2.0083962e-07
-1.1453565e-09
0.0051522435
-2.0821295e-07
-2.899891e-10
0.0051523317
1.2245684e-07
-8.3183777e-10
1.3417578e-07
1.1610381e-10
0.0047166863
-1.2936853e-07
-9.2247445e-10
0.0047166138
-1.3277156e-07
-2.0920222e-10
0.0047166818
5.6166851e-08
-6.4959849e-10
6.2004851e-08
1.0485152e-10
0.0041395378
-7.5435771e-08
-7.3703248e-10
0.0041394822
-7.4906187e-08
-1.5267331e-10
0.0041395336
6.378432e-09
-5.0655602e-10
7.0064909e-09
9.8481136e-11
0.0035000556
-3.3786042e-08
-5.9364842e-10
0.003500012
-2.9507858e-08
-1.1091203e-10
0.0035000517
-3.1891079e-08
-3.9521656e-10
-3.584564e-08
9.397089e-11
0.0028645107
9.0349754e-10
-4.8217003e-10
0.0028644739
8.8422998e-09
-7.7657142e-11
0.002864507
-6.373084e-08
-3.0838196e-10
-7.1878875e-08
8.9703793e-11
0.0022793807
3.3461229e-08
-3.9614674e-10
0.0022793456
4.5220162e-08
-4.9766213e-11
0.0022793768
-9.3781266e-08
-2.3986434e-10
-1.0608649e-07
8.8509094e-11
0.0017719158
6.8050813e-08
-3.3126067e-10
0.001771878
8.4128283e-08
-2.4617402e-11
0.0017719113
-1.2606277e-07
-1.8462984e-10
-1.4290018e-07
9.0712836e-11
0.0013542866
1.082457e-07
-2.851231e-10
0.0013542422
1.295446e-07
-6.6529216e-13
0.0013542812
-1.6404471e-07
-1.3899088e-10
-1.8624146e-07
9.7540857e-11
0.0010288924
1.572297e-07
-2.5729043e-10
0.0010288378
1.8512115e-07
2.3241827e-11
0.0010288857
-2.1083219e-07
-1.0209401e-10
-2.3972017e-07
1.1031803e-10
0.00079358233
2.1802883e-07
-2.4677715e-10
0.0007935139
2.5443984e-07
4.806481e-11
0.00079357365
-2.6940118e-07
-7.0215814e-11
-3.0688896e-07
1.3046214e-10
0.00064636685
2.9372782e-07
-2.5340069e-10
0.00064628082
3.412666e-07
7.4614068e-11
0.00064635553
-3.4280529e-07
-4.1460121e-11
-3.9149479e-07
1.594425e-10
0.00058972042
3.876357e-07
-2.7766673e-10
0.0005896126
4.4976875e-07
1.0354314e-10
0.00058970559
-4.3433623e-07
-1.4151299e-11
-4.9769379e-07
1.9880563e-10
0.00063488411
5.0338205e-07
-3.2066858e-10
0.00063474974
5.8467635e-07
1.3530948e-10
0.00063486466
-5.4761631e-07
1.3311957e-11
-6.3021055e-07
2.5020149e-10
0.00080676079
6.4493088e-07
-3.8399612e-10
0.00080659442
7.5137509e-07
1.7012654e-10
0.00080673527
-6.8661004e-07
4.2663938e-11
-7.9442934e-07
3.1534965e-10
0.0011501115
8.165e-07
-4.6963231e-10
0.001149907
9.5591898e-07
2.0793698e-10
0.0011500781
-8.5554217e-07
7.5789345e-11
-9.9640579e-07
3.9603865e-10
0.0017378554
1.0223718e-06
-5.7983301e-10
0.0017376061
1.2049486e-06
2.4844577e-10
0.0017378117
-1.0587078e-06
1.1462917e-10
-1.242785e-06
4.9414176e-10
0.0026823606
1.26658e-06
-7.1676906e-10
0.0026820593
1.5054981e-06
2.9061451e-10
0.0026823035
-1.3001591e-06
1.6121435e-10
-1.5406082e-06
6.1156028e-10
0.0041506879
1.5524587e-06
-8.8265159e-10
0.0041503274
1.8646684e-06
3.332694e-10
0.0041506135
-1.5832552e-06
2.1766914e-10
-1.8969869e-06
7.4992538e-10
0.006384795
1.8820457e-06
-1.0791869e-09
0.0063843685
2.2891485e-06
3.7454406e-10
0.0063846987
-1.9100659e-06
2.8609202e-10
-2.3186252e-06
9.10698e-10
0.0097276873
2.2553451e-06
-1.3072096e-09
0.009727189
2.7845673e-06
4.120974e-10
0.0097275634
-2.2806348e-06
3.6835936e-10
-2.8111728e-06
1.0947164e-09
0.014656371
2.669475e-06
-1.566229e-09
0.014655797
3.3546695e-06
4.4312169e-10
0.014656213
-2.692128e-06
4.6587451e-10
-3.378402e-06
1.3018835e-09
0.021822168
3.1177558e-06
-1.8539073e-09
0.021821517
4.0003269e-06
4.6385742e-10
0.021821968
-3.1379227e-06
5.7926294e-10
-4.0212195e-06
1.5307896e-09
0.032098442
3.5888323e-06
-2.1655028e-09
0.032097718
4.7184129e-06
4.7103586e-10
0.032098191
-3.6067272e-06
7.0801965e-10
-4.7365419e-06
1.7782909e-09
0.046634995
4.0659611e-06
-2.4933215e-09
0.046634206
5.500606e-06
4.6104351e-10
0.046634686
-4.081868e-06
8.5013688e-10
-5.5160983e-06
2.0390785e-09
0.066917343
4.5266381e-06
-2.8262414e-09
0.066916504
6.3322147e-06
4.3061426e-10
0.066916967
-4.5409122e-06
1.0017461e-09
-6.3452533e-06
2.3052702e-09
0.094827703
4.9427659e-06
-3.1493931e-09
0.094826834
7.1911565e-06
3.7727903e-10
0.094827254
-4.9558306e-06
1.1568307e-09
-7.2019819e-06
2.5660871e-09
0.13270299
5.2815698e-06
-3.4440925e-09
0.13270212
8.0472615e-06
2.99923e-10
0.13270246
-5.293906e-06
1.3070795e-09
-8.0561688e-06
2.8076731e-09
0.18338344
5.5074387e-06
-3.6881338e-09
0.18338262
8.8621057e-06
1.9938288e-10
0.18338285
-5.5195654e-06
1.4419621e-09
-8.8694341e-06
3.0131257e-09
0.25024401
5.5847927e-06
-3.856543e-09
0.25024327
9.5896022e-06
7.910572e-11
0.25024335
-5.5972384e-06
1.5491116e-09
-9.5957173e-06
3.1628084e-09
0.33719935
5.4819415e-06
-3.9228776e-09
0.33719875
1.017759e-05
-5.4248532e-11
0.33719865
-5.4952058e-06
1.6150855e-09
-1.0182859e-05
3.2350077e-09
0.44867307
5.1757099e-06
-3.8611112e-09
0.44867266
1.0570639e-05
-1.9034312e-10
0.44867235
-5.1902186e-06
1.6265487e-09
-1.0575397e-05
3.2069814e-09
0.58952197
4.6563783e-06
-3.648085e-09
0.58952181
1.0714223e-05
-3.1496672e-10
0.58952129
-4.6724354e-06
1.5718684e-09
-1.0718743e-05
3.0564245e-09
0.76490846
3.9322459e-06
-3.2664156e-09
0.7649086
1.0560303e-05
-4.1025328e-10
0.76490788
-3.9499906e-06
1.4430285e-09
-1.0564763e-05
2.7633436e-09
0.98011693
3.0329357e-06
-2.707642e-09
0.9801174
1.0074154e-05
-4.5548111e-10
0.9801165
-3.0523121e-06
1.2376628e-09
-1.0078615e-05
2.3122874e-09
1.2403151
2.0104749e-06
-1.9752432e-09
1.2403159
9.2419753e-06
-4.2858882e-10
1.2403149
-2.0312278e-06
9.61086e-10
-9.2463862e-06
1.694828e-09
1.5502668
9.3728211e-07
-1.0870894e-09
1.5502679
8.0785083e-06
-3.0849517e-10
1.5502668
-9.5898612e-07
6.2794446e-10
-8.0827236e-06
9.1215002e-10
1.9140098
-9.9490561e-08
-7.7015266e-11
1.9140113
6.6334162e-06
-7.829293e-11
1.9140102
7.7360826e-08
2.6173772e-10
-6.6372523e-06
-2.2607578e-11
2.3345182
-1.0072428e-06
1.0056652e-09
2.3345198
4.9948564e-06
2.7096796e-10
2.3345189
9.8521689e-07
-1.0616669e-10
-4.9981942e-06
-1.0825873e-09
2.8133741
-1.6999946e-06
2.0981102e-09
2.8133758
3.2884352e-06
7.3623033e-10
2.8133751
1.6784267e-06
-4.3492974e-10
-3.2912767e-06
-2.2259322e-09
3.3504791
-2.1118401e-06
3.1297171e-09
3.3504808
1.6695372e-06
1.2982295e-09
3.3504803
2.0907777e-06
-6.857245e-10
-1.6721068e-06
-3.3963856e-09
3.9438337
-2.2094879e-06
4.0297062e-09
3.9438351
3.0738139e-07
1.9186799e-09
3.943835
2.1885719e-06
-8.2278598e-10
-3.1013853e-07
-4.5249705e-09
4.5894132
-2.0017654e-06
4.737776e-09
4.5894142
-6.4067905e-07
2.5389915e-09
4.5894144
1.9802593e-06
-8.1863758e-10
6.3717287e-07
-5.5335372e-09
5.2811616
-1.5445353e-06
5.2155074e-09
5.281162
-1.0655071e-06
3.0838329e-09
5.2811625
1.5216284e-06
-6.5581682e-10
1.0609716e-06
-6.3406992e-09
6.011115
-9.4071076e-07
5.4552484e-09
6.0111149
-9.5300225e-07
3.4753602e-09
6.0111155
9.1641088e-07
-3.2100841e-10
9.4823046e-07
-6.870689e-09
6.769657
-3.4215966e-07
5.4719303e-09
6.7696565
-4.5263463e-07
3.6454652e-09
6.7696571
3.1914725e-07
2.4187301e-10
4.5069055e-07
-7.0382102e-09
7.5458925
4.7058826e-09
7.545892
3.1609172e-09
7.5458924
1.1280166e-09
-5.9945855e-09
0.02239045
7.0579803e-08
0.022390325
5.9672017e-08
0.022390436
-9.2568887e-08
-8.6973065e-08
0.11827869
1.8515862e-07
0.11827853
2.0684388e-07
0.11827867
-2.1331394e-07
-2.4312229e-07
0.12131871
1.9227171e-07
0.12131866
2.5298386e-07
0.12131869
-2.288393e-07
-2.9830511e-07
0.095414819
2.9450493e-08
0.095414958
1.1721402e-07
0.095414805
-7.772303e-08
-1.7056569e-07
0.065563292
-2.6149403e-07
0.065563586
-1.708829e-07
0.065563294
2.0202803e-07
1.0908723e-07
0.040996238
-5.5538136e-07
0.040996558
-4.8325522e-07
0.040996255
4.8698844e-07
4.1451303e-07
0.02392052
-7.6664234e-07
0.023920768
-7.2248982e-07
0.023920544
6.926744e-07
6.4886626e-07
0.013544218
-8.6490992e-07
0.013544352
-8.4819909e-07
0.013544241
7.8866324e-07
7.7191211e-07
0.0080913228
-8.5928407e-07
0.0080913453
-8.639774e-07
0.0080913398
7.8329388e-07
7.8698834e-07
0.0057621871
-7.7856019e-07
0.0057621255
-7.9687821e-07
0.0057621975
7.0442738e-07
7.2064595e-07
0.0051193195
-6.5592116e-07
0.0051192075
-6.8066229e-07
0.0051193239
5.8443171e-07
6.061024e-07
0.0051775225
-5.1988955e-07
0.0051773905
-5.4551256e-07
0.0051775224
4.5123526e-07
4.7308019e-07
0.0053553173
-3.9050938e-07
0.0053551874
-4.1338761e-07
0.0053553142
3.2451881e-07
3.4320394e-07
0.0053741505
-2.7901749e-07
0.0053740359
-2.9720418e-07
0.0053741459
2.1534174e-07
2.2918887e-07
0.0051523372
-1.8939382e-07
0.0051522433
-2.021729e-07
0.0051523321
1.2764013e-07
1.3615684e-07
0.0047166858
-1.2059967e-07
0.0047166125
-1.2800186e-07
0.0047166809
6.0415135e-08
6.3807374e-08
0.0041395368
-6.8698818e-08
0.0041394806
-7.1115618e-08
0.0041395323
9.8425343e-09
8.6058695e-09
0.0035000546
-2.858733e-08
0.0035000105
-2.6438575e-08
0.0035000504
-2.9078861e-08
-3.4460576e-08
0.00286451
4.935516e-09
0.0028644727
1.1410636e-08
0.002864506
-6.1455205e-08
-7.070657e-08
0.0022793804
3.6602019e-08
0.0022793448
4.7470712e-08
0.0022793763
-9.1945455e-08
-1.0510718e-07
0.0017719157
7.0503517e-08
0.0017718774
8.6213856e-08
0.0017719111
-1.2458201e-07
-1.4208471e-07
0.0013542867
1.1016021e-07
0.0013542418
1.3159578e-07
0.0013542811
-1.6284632e-07
-1.8555714e-07
0.0010288926
1.5871102e-07
0.0010288375
1.872536e-07
0.0010288856
-2.0985808e-07
-2.3913591e-07
0.00079358246
2.1915009e-07
0.00079351344
2.5676109e-07
0.00079357351
-2.6860395e-07
-3.0637891e-07
0.00064636683
2.9453906e-07
0.00064628014
3.4388122e-07
0.00064635517
-3.4214719e-07
-3.9104108e-07
0.00058972011
3.8817026e-07
0.00058961152
4.5278198e-07
0.00058970485
-4.3378865e-07
-4.9728873e-07
0.00063488336
5.0366145e-07
0.00063474808
5.881963e-07
0.00063486335
-5.4715845e-07
-6.2985851e-07
0.00080675936
6.4496861e-07
0.00080659194
7.5551341e-07
0.00080673314
-6.8622806e-07
-7.9414877e-07
0.0011501091
8.1630467e-07
0.0011499034
9.607902e-07
0.0011500748
-8.5522815e-07
-9.9623143e-07
0.0017378516
1.0219499e-06
0.0017376009
1.2106683e-06
0.0017378068
-1.0584587e-06
-1.2427701e-06
0.0026823549
1.265939e-06
0.002682052
1.5121785e-06
0.0026822964
-1.2999756e-06
-1.5408264e-06
0.0041506795
1.5516095e-06
0.0041503172
1.8724133e-06
0.0041506035
-1.5831397e-06
-1.8975342e-06
0.006384783
1.8810054e-06
0.0063843546
2.2980461e-06
0.0063846848
-1.9100199e-06
-2.3196205e-06
0.0097276706
2.2541387e-06
0.0097271703
2.7946814e-06
0.0097275444
-2.2806559e-06
-2.8127567e-06
0.014656348
2.6681377e-06
0.014655772
3.3660296e-06
0.014656187
-2.6922056e-06
-3.3807344e-06
0.021822138
3.1163348e-06
0.021821485
4.0129151e-06
0.021821934
-3.1380337e-06
-4.0244732e-06
0.032098402
3.5873882e-06
0.032097676
4.7321529e-06
0.032098148
-3.6068321e-06
-4.7408943e-06
0.046634944
4.0645696e-06
0.046634154
5.5153515e-06
0.046634631
-4.0819071e-06
-5.5217185e-06
0.066917279
4.5253924e-06
0.066916438
6.3477391e-06
0.066916899
-4.540805e-06
-6.352285e-06
0.094827624
4.94178e-06
0.094826755
7.2071456e-06
0.09482717
-4.9554775e-06
-7.2105237e-06
0.13270289
5.2809828e-06
0.13270203
8.0633107e-06
0.13270236
-5.2931943e-06
-8.0662498e-06
0.18338333
5.5074213e-06
0.18338251
8.8777222e-06
0.18338273
-5.5183813e-06
-8.8809886e-06
0.25024388
5.5855537e-06
0.25024314
9.6042158e-06
0.25024321
-5.5954833e-06
-9.6085603e-06
0.33719921
5.4837344e-06
0.33719861
1.0190572e-05
0.3371985
-5.4928177e-06
-1.0196665e-05
0.44867291
5.1788359e-06
0.44867251
1.058133e-05
0.44867219
-5.1871946e-06
-1.058969e-05
0.5895218
4.661181e-06
0.58952166
1.0721976e-05
0.58952113
-4.6688518e-06
-1.0732897e-05
0.76490829
3.939094e-06
0.76490845
1.0564534e-05
0.76490771
-3.9460148e-06
-1.0578028e-05
0.98011676
3.0421869e-06
0.98011725
1.0074405e-05
0.98011634
-3.0482003e-06
-1.0090167e-05
1.2403149
2.0224188e-06
1.2403157
9.2379929e-06
1.2403147
-2.0273011e-06
-9.2554087e-06
1.5502666
9.5206159e-07
1.5502678
8.070318e-06
1.5502667
-9.5558211e-07
-8.0885202e-06
1.9140097
-8.1973054e-08
1.9140112
6.6214014e-06
1.9140101
7.9956689e-08
-6.6393811e-06
2.3345181
-9.8742947e-07
2.3345198
4.9798387e-06
2.3345189
9.868267e-07
-4.9965875e-06
2.8133741
-1.6787288e-06
2.8133758
3.2716649e-06
2.8133751
1.6791228e-06
-3.2863962e-06
3.3504792
-2.0903859e-06
3.3504808
1.6526758e-06
3.3504804
2.0909195e-06
-1.6649823e-06
3.9438338
-2.189442e-06
3.9438352
2.9235592e-07
3.9438351
2.1888357e-06
-3.0230531e-07
4.5894134
-1.9848394e-06
4.5894143
-6.5200022e-07
4.5894145
1.9816599e-06
6.4394614e-07
5.2811617
-1.5322313e-06
5.2811621
-1.0719539e-06
5.2811626
1.5256247e-06
1.065338e-06
6.0111152
-9.3398987e-07
6.011115
-9.5531011e-07
6.0111157
9.2533454e-07
9.5063531e-07
6.7696571
-3.4146325e-07
6.7696566
-4.5396186e-07
6.7696572
3.3673035e-07
4.54505e-07
7.5458925
7.545892
7.5458924
)
;

boundaryField
{
    movingWall
    {
        type            calculated;
        value           uniform 0;
    }
    CPLReceiveMD
    {
        type            calculated;
        value           uniform 0;
    }
    streamwiseIn
    {
        type            cyclic;
        value           nonuniform List<scalar> 
120
(
-0.022390582
-0.11827892
-0.12131883
-0.095414768
-0.065563067
-0.040995955
-0.023920284
-0.013544079
-0.0080912872
-0.0057622336
-0.0051194176
-0.0051776432
-0.0053554386
-0.005374259
-0.0051524267
-0.004716756
-0.0041395904
-0.0035000962
-0.0028645445
-0.0022794125
-0.0017719496
-0.001354326
-0.0010289407
-0.00079364239
-0.00064644186
-0.00058981372
-0.00063499938
-0.00080690204
-0.001150283
-0.0017380616
-0.0026826055
-0.0041509749
-0.0063851262
-0.0097280629
-0.014656788
-0.02182262
-0.032098917
-0.046635478
-0.06691781
-0.094828126
-0.13270333
-0.18338368
-0.25024409
-0.33719926
-0.44867277
-0.58952145
-0.76490774
-0.98011603
-1.240314
-1.5502657
-1.9140088
-2.3345173
-2.8133734
-3.3504787
-3.9438336
-4.5894134
-5.281162
-6.0111156
-6.7696576
-7.5458928
-0.022390539
-0.11827881
-0.12131872
-0.095414656
-0.065562995
-0.040995933
-0.023920296
-0.013544107
-0.0080913175
-0.0057622591
-0.0051194357
-0.005177654
-0.0053554434
-0.0053742597
-0.0051524252
-0.0047167535
-0.0041395878
-0.0035000939
-0.0028645428
-0.0022794112
-0.0017719487
-0.0013543254
-0.0010289402
-0.00079364189
-0.00064644114
-0.00058981258
-0.0006349976
-0.00080689933
-0.001150279
-0.0017380557
-0.0026825971
-0.0041509632
-0.0063851102
-0.0097280411
-0.014656759
-0.021822582
-0.032098869
-0.046635416
-0.066917734
-0.094828033
-0.13270322
-0.18338355
-0.25024394
-0.33719909
-0.44867259
-0.58952127
-0.76490755
-0.98011585
-1.2403139
-1.5502655
-1.9140087
-2.3345172
-2.8133734
-3.3504788
-3.9438337
-4.5894136
-5.2811622
-6.0111158
-6.7696577
-7.5458929
)
;
    }
    streamwiseOut
    {
        type            cyclic;
        value           nonuniform List<scalar> 
120
(
0.022390582
0.11827892
0.12131883
0.095414768
0.065563067
0.040995955
0.023920284
0.013544079
0.0080912872
0.0057622336
0.0051194176
0.0051776432
0.0053554386
0.005374259
0.0051524267
0.004716756
0.0041395904
0.0035000962
0.0028645445
0.0022794125
0.0017719496
0.001354326
0.0010289407
0.00079364239
0.00064644186
0.00058981372
0.00063499938
0.00080690204
0.001150283
0.0017380616
0.0026826055
0.0041509749
0.0063851262
0.0097280629
0.014656788
0.02182262
0.032098917
0.046635478
0.06691781
0.094828126
0.13270333
0.18338368
0.25024409
0.33719926
0.44867277
0.58952145
0.76490774
0.98011603
1.240314
1.5502657
1.9140088
2.3345173
2.8133734
3.3504787
3.9438336
4.5894134
5.281162
6.0111156
6.7696576
7.5458928
0.022390539
0.11827881
0.12131872
0.095414656
0.065562995
0.040995933
0.023920296
0.013544107
0.0080913175
0.0057622591
0.0051194357
0.005177654
0.0053554434
0.0053742597
0.0051524252
0.0047167535
0.0041395878
0.0035000939
0.0028645428
0.0022794112
0.0017719487
0.0013543254
0.0010289402
0.00079364189
0.00064644114
0.00058981258
0.0006349976
0.00080689933
0.001150279
0.0017380557
0.0026825971
0.0041509632
0.0063851102
0.0097280411
0.014656759
0.021822582
0.032098869
0.046635416
0.066917734
0.094828033
0.13270322
0.18338355
0.25024394
0.33719909
0.44867259
0.58952127
0.76490755
0.98011585
1.2403139
1.5502655
1.9140087
2.3345172
2.8133734
3.3504788
3.9438337
4.5894136
5.2811622
6.0111158
6.7696577
7.5458929
)
;
    }
    front
    {
        type            cyclic;
        value           nonuniform 0();
    }
    back
    {
        type            cyclic;
        value           nonuniform 0();
    }
    procBoundary0to1
    {
        type            processor;
        value           nonuniform List<scalar> 
240
(
-1.6015034e-10
-2.1953209e-09
1.1067324e-09
2.042899e-09
-5.6734738e-09
-3.2412055e-09
-1.6711653e-09
-2.0323385e-09
-3.1955696e-09
-1.7912226e-09
-3.0009423e-09
-4.8106181e-09
-9.9046691e-10
-4.3068728e-10
-2.9875038e-09
-6.2375464e-09
3.9460363e-10
4.3227425e-10
-2.3120901e-09
-6.3382454e-09
1.0601132e-09
7.010179e-10
-1.287282e-09
-5.8366996e-09
1.2570303e-09
6.4024303e-10
-4.4605581e-10
-4.9318445e-09
1.2083483e-09
4.2905975e-10
1.0266846e-10
-3.9345295e-09
1.0661938e-09
1.9612779e-10
4.2945476e-10
-3.0242769e-09
9.0992432e-10
6.717442e-12
5.9228498e-10
-2.2738414e-09
7.7268994e-10
-1.1989229e-10
6.3351712e-10
-1.6941379e-09
6.6315223e-10
-1.89056e-10
6.006155e-10
-1.2648342e-09
5.7873913e-10
-2.120025e-10
5.3194611e-10
-9.5445709e-10
5.1234955e-10
-2.0382889e-10
4.53069e-10
-7.3173776e-10
4.5680193e-10
-1.7934395e-10
3.7744713e-10
-5.7071428e-10
4.0732528e-10
-1.4916948e-10
3.0895186e-10
-4.5208263e-10
3.6239115e-10
-1.1999586e-10
2.5001233e-10
-3.6265597e-10
3.212008e-10
-9.5784548e-11
2.0045894e-10
-2.9406285e-10
2.8418761e-10
-7.8584101e-11
1.5906591e-10
-2.4105688e-10
2.5217507e-10
-6.8121138e-11
1.281893e-10
-2.0264442e-10
2.2663352e-10
-6.400674e-11
1.0151458e-10
-1.7651049e-10
2.079598e-10
-6.5763162e-11
7.917077e-11
-1.6184594e-10
2.0048063e-10
-7.2883035e-11
5.7104823e-11
-1.5838672e-10
2.0480259e-10
-8.5043299e-11
3.625508e-11
-1.6633119e-10
2.224011e-10
-1.0207055e-10
1.5767563e-11
-1.8620671e-10
2.5487093e-10
-1.2386632e-10
-4.9747013e-12
-2.1879746e-10
3.0396891e-10
-1.503206e-10
-2.7621684e-11
-2.6512774e-10
3.7178569e-10
-1.81228e-10
-5.3424503e-11
-3.264622e-10
4.6070914e-10
-2.1620063e-10
-8.386102e-11
-4.0428532e-10
5.7331016e-10
-2.5458521e-10
-1.2064084e-10
-5.002479e-10
7.1199699e-10
-2.9524657e-10
-1.6566776e-10
-6.1607633e-10
8.7915719e-10
-3.3673142e-10
-2.2095998e-10
-7.5326371e-10
1.0766255e-09
-3.771099e-10
-2.8852211e-10
-9.1316539e-10
1.3053304e-09
-4.1392182e-10
-3.7015408e-10
-1.0965402e-09
1.5648492e-09
-4.4449985e-10
-4.6720046e-10
-1.3032321e-09
1.8528933e-09
-4.6488057e-10
-5.802431e-10
-1.531787e-09
2.164757e-09
-4.717917e-10
-7.0874468e-10
-1.7790289e-09
2.4927725e-09
-4.6160173e-10
-8.5067355e-10
-2.0396248e-09
2.825837e-09
-4.3102669e-10
-1.0021436e-09
-2.3056747e-09
3.149095e-09
-3.7758403e-10
-1.1571253e-09
-2.5663868e-09
3.4438726e-09
-3.0014871e-10
-1.307298e-09
-2.8078952e-09
3.6879714e-09
-1.9955003e-10
-1.4421243e-09
-3.0132904e-09
3.8564231e-09
-7.9229595e-11
-1.549232e-09
-3.1629306e-09
3.9227889e-09
5.4156669e-11
-1.6151749e-09
-3.2350984e-09
3.8610455e-09
1.9027496e-10
-1.6266151e-09
-3.2070487e-09
3.6480364e-09
3.1491609e-10
-1.5719177e-09
-3.0564744e-09
3.2663796e-09
4.1021562e-10
-1.4430652e-09
-2.7633806e-09
2.7076153e-09
4.554531e-10
-1.2376901e-09
-2.3123149e-09
1.9752234e-09
4.2856792e-10
-9.6110623e-10
-1.6948484e-09
1.0870747e-09
3.084796e-10
-6.2795942e-10
-9.1216521e-10
7.7004251e-11
7.8281269e-11
-2.6174804e-10
2.2596289e-11
-1.0056739e-09
-2.7097678e-10
1.0615875e-10
1.0825791e-09
-2.0981169e-09
-7.3623718e-10
4.3492376e-10
2.2259262e-09
-3.1297222e-09
-1.298235e-09
6.8571999e-10
3.3963813e-09
-4.0297102e-09
-1.9186847e-09
8.2278264e-10
4.5249676e-09
-4.7377794e-09
-2.5389954e-09
8.1863537e-10
5.5335351e-09
-5.2155104e-09
-3.0838363e-09
6.558154e-10
6.3406978e-09
-5.455251e-09
-3.4753631e-09
3.2100738e-10
6.870688e-09
-5.4719324e-09
-3.6454675e-09
-2.4187394e-10
7.0382093e-09
-4.705884e-09
-3.1609185e-09
-1.1280171e-09
5.9945849e-09
)
;
    }
    procBoundary0to1throughfront
    {
        type            processorCyclic;
        value           nonuniform List<scalar> 
240
(
-8.0202601e-09
-1.5704076e-08
-1.8926769e-08
-1.941842e-08
-1.7159803e-08
-1.3979063e-08
-1.0879465e-08
-8.2488301e-09
-6.168535e-09
-4.5893363e-09
-3.4229472e-09
-2.5695088e-09
-1.949501e-09
-1.5045505e-09
-1.188055e-09
-9.5789219e-10
-7.6749431e-10
-6.1933064e-10
-5.0345302e-10
-4.1349684e-10
-3.4521125e-10
-2.9619502e-10
-2.6597548e-10
-2.5352084e-10
-2.5859008e-10
-2.8162871e-10
-3.2367254e-10
-3.8625973e-10
-4.7132874e-10
-5.8109822e-10
-7.1770861e-10
-8.8334669e-10
-1.0796994e-09
-1.3075865e-09
-1.5665055e-09
-1.8541097e-09
-2.1656506e-09
-2.4934293e-09
-2.8263199e-09
-3.1494502e-09
-3.444134e-09
-3.6881638e-09
-3.8565648e-09
-3.9228934e-09
-3.8611226e-09
-3.6480933e-09
-3.2664217e-09
-2.7076464e-09
-1.9752463e-09
-1.0870917e-09
-7.701698e-11
1.0056643e-09
2.0981096e-09
3.1297168e-09
4.0297063e-09
4.7377763e-09
5.215508e-09
5.4552494e-09
5.4719311e-09
4.7058828e-09
8.5609043e-09
5.3302788e-09
1.4290872e-09
-1.2616614e-09
-2.8223954e-09
-3.1912193e-09
-2.9323169e-09
-2.4054253e-09
-1.832273e-09
-1.326004e-09
-9.2720854e-10
-6.3489562e-10
-4.3285174e-10
-2.9895267e-10
-2.1164537e-10
-1.5397029e-10
-1.1409668e-10
-8.4205437e-11
-5.9361857e-11
-3.7224156e-11
-1.6080448e-11
5.1254945e-12
2.7162163e-11
5.0716635e-11
7.6408833e-11
1.0476114e-10
1.361428e-10
1.7070945e-10
2.0836262e-10
2.4875552e-10
2.9086523e-10
3.33467e-10
3.7469477e-10
4.1219319e-10
4.4317069e-10
4.638951e-10
4.7106496e-10
4.6106601e-10
4.3063164e-10
3.7729244e-10
2.9993331e-10
1.9939078e-10
7.9111755e-11
-5.4243934e-11
-1.9033963e-10
-3.1496409e-10
-4.1025129e-10
-4.5547961e-10
-4.2858771e-10
-3.0849435e-10
-7.8292341e-11
2.7096847e-10
7.3623081e-10
1.29823e-09
1.9186805e-09
2.5389919e-09
3.0838331e-09
3.4753601e-09
3.6454651e-09
3.1609172e-09
-2.885026e-09
-3.3067075e-09
-2.7519354e-09
-2.5534681e-09
-2.6007456e-09
-2.7749274e-09
-2.8666716e-09
-2.8008207e-09
-2.5933313e-09
-2.2967447e-09
-1.9638227e-09
-1.6334036e-09
-1.3295145e-09
-1.0647532e-09
-8.4340842e-10
-6.6389846e-10
-5.2123615e-10
-4.0899122e-10
-3.2066458e-10
-2.5049636e-10
-1.9358758e-10
-1.4619896e-10
-1.0792937e-10
-7.4856826e-11
-4.5104015e-11
-1.698106e-11
1.1132301e-11
4.0999127e-11
7.4532861e-11
1.136929e-10
1.60524e-10
2.1716436e-10
2.8572558e-10
3.6809507e-10
4.6568505e-10
5.7912793e-10
7.0792402e-10
8.5006957e-10
1.001699e-09
1.156798e-09
1.3070569e-09
1.4419467e-09
1.5491012e-09
1.6150785e-09
1.6265442e-09
1.5718655e-09
1.4430268e-09
1.2376619e-09
9.6108544e-10
6.2794419e-10
2.6173693e-10
-1.0616722e-10
-4.349302e-10
-6.8572492e-10
-8.2278643e-10
-8.1863821e-10
-6.5581774e-10
-3.2100966e-10
2.4187187e-10
1.128016e-09
7.3568535e-09
7.060852e-09
6.8027248e-09
6.3808425e-09
5.4725358e-09
4.5658189e-09
3.582247e-09
2.6708312e-09
1.9163257e-09
1.3383563e-09
9.2179789e-10
6.3600644e-10
4.4733582e-10
3.2587446e-10
2.481956e-10
1.9763026e-10
1.633272e-10
1.3908674e-10
1.2115661e-10
1.1035945e-10
1.0589247e-10
1.0809875e-10
1.1768593e-10
1.356386e-10
1.6312151e-10
2.0145995e-10
2.5213944e-10
3.167723e-10
3.9708614e-10
4.9491585e-10
6.1213494e-10
7.5035394e-10
9.1101887e-10
1.0949573e-09
1.3020649e-09
1.5309262e-09
1.7783939e-09
2.0391561e-09
2.3053285e-09
2.5661308e-09
2.8077059e-09
3.0131502e-09
3.1628267e-09
3.2350213e-09
3.2069914e-09
3.0564319e-09
2.763349e-09
2.3122914e-09
1.6948309e-09
9.1215218e-10
-2.2605922e-11
-1.0825863e-09
-2.2259315e-09
-3.3963853e-09
-4.5249704e-09
-5.5335371e-09
-6.3406991e-09
-6.8706887e-09
-7.03821e-09
-5.9945856e-09
)
;
    }
}


// ************************************************************************* //
