/*--------------------------------*- C++ -*----------------------------------*\
| =========                 |                                                 |
| \\      /  F ield         | OpenFOAM: The Open Source CFD Toolbox           |
|  \\    /   O peration     | Version:  3.0.1                                 |
|   \\  /    A nd           | Web:      www.OpenFOAM.org                      |
|    \\/     M anipulation  |                                                 |
\*---------------------------------------------------------------------------*/
FoamFile
{
    version     2.0;
    format      ascii;
    class       volVectorField;
    location    "50";
    object      U;
}
// * * * * * * * * * * * * * * * * * * * * * * * * * * * * * * * * * * * * * //

dimensions      [0 1 -1 0 0 0 0];

internalField   nonuniform List<vector> 
480
(
(0.0014105196 -2.4802571e-09 5.0362866e-11)
(0.0014105022 7.3600625e-10 -6.4485289e-11)
(0.0014105034 -1.1332984e-09 -2.8764615e-11)
(0.0014105182 -1.2578367e-09 -1.0441913e-10)
(0.0074511085 -2.1238776e-09 4.7176388e-11)
(0.0074510808 2.7172934e-09 -6.9932241e-11)
(0.0074510845 -3.1423244e-09 -2.56858e-11)
(0.0074511047 -3.4872325e-09 -1.1710872e-10)
(0.0076426106 -2.6499396e-10 3.4685017e-11)
(0.0076425977 4.6718229e-09 -6.3363864e-11)
(0.0076426009 -4.5376449e-09 -2.2055551e-11)
(0.0076426066 -5.5172856e-09 -1.0993167e-10)
(0.006010756 -3.0137876e-10 2.2831898e-11)
(0.0060107661 3.858118e-09 -5.4518139e-11)
(0.0060107691 -3.464957e-09 -1.8722132e-11)
(0.0060107527 -4.905615e-09 -9.7099581e-11)
(0.0041302154 -3.7527354e-09 1.4436746e-11)
(0.0041302466 -1.8964382e-11 -4.5487425e-11)
(0.0041302489 3.1035022e-10 -1.4993749e-11)
(0.0041302142 -1.2627898e-09 -8.1770902e-11)
(0.0025825829 -8.4503069e-09 9.1745094e-12)
(0.0025826194 -5.4050081e-09 -3.6945498e-11)
(0.0025826208 5.2736084e-09 -1.1212288e-11)
(0.0025825841 3.9594909e-09 -6.6425494e-11)
(0.0015068823 -1.2364281e-08 6.1112494e-12)
(0.0015069111 -1.016324e-08 -2.9328656e-11)
(0.0015069119 9.4530408e-09 -7.8063652e-12)
(0.0015068849 8.618998e-09 -5.2445221e-11)
(0.00085322219 -1.4571171e-08 4.4309682e-12)
(0.00085323775 -1.3177558e-08 -2.2886353e-11)
(0.00085323799 1.1924707e-08 -5.0655662e-12)
(0.00085322504 1.1592376e-08 -4.046796e-11)
(0.00050971797 -1.4981721e-08 3.5431139e-12)
(0.00050972027 -1.4242449e-08 -1.7589089e-11)
(0.00050972017 1.2593188e-08 -3.0052026e-12)
(0.00050972043 1.2663273e-08 -3.0643047e-11)
(0.00036299709 -1.3968004e-08 3.0600302e-12)
(0.00036298924 -1.3694611e-08 -1.3327499e-11)
(0.00036298894 1.1824683e-08 -1.5238474e-12)
(0.00036299889 1.2155311e-08 -2.2840951e-11)
(0.00032250255 -1.206638e-08 2.7514725e-12)
(0.0003224886 -1.2082691e-08 -9.9649966e-12)
(0.00032248821 1.0148286e-08 -5.1258261e-13)
(0.00032250365 1.0604109e-08 -1.6800012e-11)
(0.00032617081 -9.7865436e-09 2.4977965e-12)
(0.00032615446 -9.9510099e-09 -7.3591339e-12)
(0.00032615405 8.0675679e-09 1.3490555e-13)
(0.00032617132 8.5429422e-09 -1.2216453e-11)
(0.00033737141 -7.5164719e-09 2.2475987e-12)
(0.00033735538 -7.7284327e-09 -5.3708428e-12)
(0.00033735499 5.9673754e-09 5.1442299e-13)
(0.0003373715 6.3925341e-09 -8.7977307e-12)
(0.00033855713 -5.4964816e-09 1.9855448e-12)
(0.00033854305 -5.6928951e-09 -3.8777372e-12)
(0.0003385427 4.0881168e-09 7.0476702e-13)
(0.00033855696 4.4256385e-09 -6.2844142e-12)
(0.00032458263 -3.8346149e-09 1.7211254e-12)
(0.00032457115 -3.9821224e-09 -2.7726785e-12)
(0.00032457085 2.5404786e-09 7.6674583e-13)
(0.00032458233 2.7772981e-09 -4.4595983e-12)
(0.00029713711 -2.5409619e-09 1.4708731e-12)
(0.0002971282 -2.626517e-09 -1.9664742e-12)
(0.00029712795 1.338638e-09 7.4618183e-13)
(0.00029713676 1.4770796e-09 -3.1485364e-12)
(0.00026077794 -1.5653239e-09 1.2371292e-12)
(0.0002607712 -1.5872149e-09 -1.3855824e-12)
(0.00026077098 4.3663946e-10 6.7999271e-13)
(0.0002607776 4.8646255e-10 -2.2146918e-12)
(0.0002204923 -8.2826101e-10 1.0239198e-12)
(0.00022048711 -7.8925673e-10 -9.7090354e-13)
(0.0002204869 -2.4089546e-10 5.9362116e-13)
(0.00022049199 -2.6850664e-10 -1.5540837e-12)
(0.00018045503 -2.4266325e-10 8.3492283e-13)
(0.00018045073 -1.4555771e-10 -6.7713667e-13)
(0.00018045053 -7.7717153e-10 5.0356141e-13)
(0.00018045475 -8.7358404e-10 -1.0891258e-12)
(0.000143594 2.7342192e-10 6.7104878e-13)
(0.00014358999 4.2876896e-10 -4.7074938e-13)
(0.00014358977 -1.2507699e-09 4.1956646e-13)
(0.00014359373 -1.4122495e-09 -7.6335753e-13)
(0.00011162583 7.9142917e-10 5.3270406e-13)
(0.00011162158 1.0099614e-09 -3.2634779e-13)
(0.00011162132 -1.7305279e-09 3.4281821e-13)
(0.00011162554 -1.9595161e-09 -5.3553323e-13)
(8.5317192e-05 1.3720781e-09 4.179477e-13)
(8.5312229e-05 1.6647091e-09 -2.2623903e-13)
(8.5311911e-05 -2.2752708e-09 2.7534266e-13)
(8.5316855e-05 -2.5811037e-09 -3.7663696e-13)
(6.4819206e-05 2.0680907e-09 3.2438415e-13)
(6.4813113e-05 2.4525919e-09 -1.5722702e-13)
(6.4812711e-05 -2.9362625e-09 2.1781652e-13)
(6.4818791e-05 -3.3358121e-09 -2.6587064e-13)
(4.9996361e-05 2.9278206e-09 2.4930874e-13)
(4.9988734e-05 3.4299743e-09 -1.0976049e-13)
(4.998822e-05 -3.7608327e-09 1.7008424e-13)
(4.9995828e-05 -4.2794345e-09 -1.8857843e-13)
(4.0723337e-05 3.9989858e-09 1.8992991e-13)
(4.0713759e-05 4.6542189e-09 -7.7141532e-14)
(4.0713096e-05 -4.7960494e-09 1.3140965e-13)
(4.0722641e-05 -5.4689502e-09 -1.3449338e-13)
(3.7156031e-05 5.3317861e-09 1.4356031e-13)
(3.714405e-05 6.187523e-09 -5.4689396e-14)
(3.7143191e-05 -6.0917327e-09 1.0044728e-13)
(3.7155113e-05 -6.9663188e-09 -9.6504001e-14)
(4.0002613e-05 6.9810441e-09 1.0774508e-13)
(3.9987723e-05 8.0999809e-09 -3.915783e-14)
(3.9986608e-05 -7.7025125e-09 7.6015766e-14)
(4.0001399e-05 -8.8415045e-09 -6.9702657e-14)
(5.0831893e-05 9.0071246e-09 8.0343876e-14)
(5.0813529e-05 1.0471643e-08 -2.832317e-14)
(5.0812081e-05 -9.6887012e-09 5.7004904e-14)
(5.0830288e-05 -1.1174506e-08 -5.0698233e-14)
(7.2463668e-05 1.1475454e-08 5.9556484e-14)
(7.2441211e-05 1.3393402e-08 -2.06809e-14)
(7.243933e-05 -1.2115786e-08 4.239748e-14)
(7.2461548e-05 -1.405622e-08 -3.7136399e-14)
(0.00010949157 1.4454437e-08 4.3906303e-14)
(0.00010946437 1.6966505e-08 -1.522425e-14)
(0.00010946193 -1.5052332e-08 3.1299357e-14)
(0.00010948878 -1.7587947e-08 -2.7382251e-14)
(0.00016899436 1.8011528e-08 3.2205114e-14)
(0.00016896174 2.1300453e-08 -1.1275632e-14)
(0.00016895857 -1.8566046e-08 2.2948288e-14)
(0.00016899069 -2.1879284e-08 -2.0307722e-14)
(0.00026149617 2.2207222e-08 2.3511618e-14)
(0.00026145752 2.6508958e-08 -8.3998933e-15)
(0.00026145342 -2.2717773e-08 1.6716351e-14)
(0.00026149138 -2.7044085e-08 -1.513293e-14)
(0.00040223934 2.7086753e-08 1.7088534e-14)
(0.00040219415 3.2703627e-08 -6.2990671e-15)
(0.00040218887 -2.7553202e-08 1.21005e-14)
(0.0004022331 -3.319416e-08 -1.131868e-14)
(0.00061283174 3.2669455e-08 1.236742e-14)
(0.00061277971 3.9985071e-08 -4.7506903e-15)
(0.00061277293 -3.3092242e-08 8.7057476e-15)
(0.00061282369 -4.0430401e-08 -8.4886628e-15)
(0.00092332271 3.8936007e-08 8.9151275e-15)
(0.00092326384 4.843122e-08 -3.5680662e-15)
(0.0009232552 -3.9316271e-08 6.2264817e-15)
(0.00092331243 -4.8831122e-08 -6.376913e-15)
(0.0013747428 4.5814153e-08 6.4013488e-15)
(0.0013746775 5.8082869e-08 -2.6826192e-15)
(0.0013746666 -4.6153865e-08 4.4265504e-15)
(0.0013747298 -5.8437601e-08 -4.794176e-15)
(0.0020221101 5.3164066e-08 4.5785649e-15)
(0.0020220394 6.892672e-08 -2.0208263e-15)
(0.0020220257 -5.3466152e-08 3.1274282e-15)
(0.0020220939 -6.9237145e-08 -3.6043302e-15)
(0.0029378573 6.0765131e-08 3.2621196e-15)
(0.002937783 8.0876658e-08 -1.5233618e-15)
(0.0029377659 -6.1033572e-08 2.195178e-15)
(0.0029378374 -8.1144365e-08 -2.7081156e-15)
(0.0042155656 6.8306586e-08 2.315111e-15)
(0.0042154902 9.3754496e-08 -1.1478978e-15)
(0.0042154693 -6.8546473e-08 1.5300199e-15)
(0.0042155417 -9.3981893e-08 -2.0324094e-15)
(0.0059738068 7.5385064e-08 1.6364559e-15)
(0.0059737337 1.0727195e-07 -8.6406607e-16)
(0.0059737084 -7.5602582e-08 1.0581901e-15)
(0.0059737786 -1.0746233e-07 -1.5229352e-15)
(0.0083597967 8.1512383e-08 1.1516712e-15)
(0.0083597304 1.2101631e-07 -6.4916302e-16)
(0.0083597002 -8.1714693e-08 7.2583638e-16)
(0.0083597645 -1.211738e-07 -1.1391349e-15)
(0.011552459 8.6136807e-08 8.0684385e-16)
(0.011552405 1.3444269e-07 -4.8681105e-16)
(0.01155237 -8.6331807e-08 4.931863e-16)
(0.011552424 -1.3457222e-07 -8.5032978e-16)
(0.015764401 8.8680194e-08 5.6329798e-16)
(0.015764365 1.4687653e-07 -3.6467439e-16)
(0.015764325 -8.8876137e-08 3.3048928e-16)
(0.015764364 -1.4698355e-07 -6.3285382e-16)
(0.021242233 8.859178e-08 3.9219364e-16)
(0.021242221 1.5752995e-07 -2.7302125e-16)
(0.021242176 -8.8796745e-08 2.1717274e-16)
(0.021242196 -1.5762013e-07 -4.6928825e-16)
(0.028264621 8.5416765e-08 2.7238419e-16)
(0.02826464 1.6553581e-07 -2.0401686e-16)
(0.02826459 -8.5638003e-08 1.3879353e-16)
(0.028264588 -1.6561463e-07 -3.4676444e-16)
(0.037137527 7.8874446e-08 1.8934407e-16)
(0.037137583 1.7000264e-07 -1.5200813e-16)
(0.03713753 -7.911766e-08 8.4509422e-17)
(0.037137503 -1.7007487e-07 -2.555123e-16)
(0.048186163 6.8936786e-08 1.3194242e-16)
(0.048186259 1.7009217e-07 -1.1316649e-16)
(0.048186206 -6.9205427e-08 4.8035735e-17)
(0.048186153 -1.701614e-07 -1.8781801e-16)
(0.061743424 5.5894705e-08 9.0523433e-17)
(0.061743565 1.6511879e-07 -8.3922119e-17)
(0.061743511 -5.6189415e-08 2.5315062e-17)
(0.061743436 -1.6518704e-07 -1.3752395e-16)
(0.078134858 4.0396787e-08 6.0202892e-17)
(0.078135041 1.5466647e-07 -6.0756579e-17)
(0.07813499 -4.0715161e-08 1.2700826e-17)
(0.078134896 -1.5473405e-07 -1.0155505e-16)
(0.097660571 2.3444707e-08 4.081017e-17)
(0.097660794 1.3871341e-07 -4.3985868e-17)
(0.097660747 -2.3781354e-08 4.040743e-18)
(0.097660642 -1.387791e-07 -7.5186471e-17)
(0.12057493 6.3337226e-09 3.152685e-17)
(0.12057519 1.177487e-07 -3.1269224e-17)
(0.12057514 -6.6801112e-09 -3.1880738e-18)
(0.12057504 -1.178103e-07 -5.7772523e-17)
(0.14706529 -9.4634263e-09 2.6140579e-17)
(0.14706556 9.2858478e-08 -2.6535824e-17)
(0.14706553 9.114317e-09 -4.8496446e-18)
(0.14706543 -9.2914024e-08 -4.2319636e-17)
(0.17723132 -2.2475934e-08 1.7269026e-17)
(0.1772316 6.5754005e-08 -2.540849e-17)
(0.17723157 2.2129838e-08 -8.354768e-21)
(0.1772315 -6.580289e-08 -2.6673717e-17)
(0.21106682 -3.1446399e-08 7.8745827e-18)
(0.21106709 3.8708466e-08 -2.5145731e-17)
(0.21106706 3.110773e-08 5.3688955e-18)
(0.21106702 -3.8752515e-08 -1.228204e-17)
(0.24844583 -3.554285e-08 -3.6983714e-18)
(0.24844607 1.4372137e-08 -2.0013553e-17)
(0.24844604 3.5209825e-08 1.4117761e-17)
(0.24844604 -1.4416244e-08 -6.764371e-18)
(0.28911482 -3.4537122e-08 -1.1572629e-17)
(0.28911501 -4.5419642e-09 -1.3691421e-17)
(0.28911497 3.4203007e-08 2.1273229e-17)
(0.28911502 4.490946e-09 -4.0614988e-18)
(0.33269226 -2.8890423e-08 -2.3101391e-17)
(0.3326924 -1.5683482e-08 -7.1311241e-18)
(0.33269235 2.8544967e-08 3.1406783e-17)
(0.33269244 1.5620123e-08 -4.1124467e-18)
(0.37867648 -1.9842553e-08 -3.5578917e-17)
(0.37867655 -1.7757264e-08 5.7624468e-19)
(0.3786765 1.9473048e-08 4.2618616e-17)
(0.37867661 1.7681609e-08 -8.6745393e-18)
(0.42646166 -9.7217074e-09 -2.9903753e-17)
(0.42646167 -1.1901361e-08 -4.2578342e-20)
(0.42646163 9.3122793e-09 3.9030785e-17)
(0.42646173 1.1850134e-08 -5.3989275e-18)
(0.47536144 -2.6248248e-09 -8.5207415e-18)
(0.47536143 -4.1850944e-09 -6.9739285e-19)
(0.47536141 2.463208e-09 1.8516756e-17)
(0.47536146 4.1734749e-09 7.5339368e-19)
(0.0014105178 6.9318046e-10 -5.7987168e-10)
(0.0014105013 6.8886976e-10 9.2387701e-11)
(0.0014105018 -9.6815653e-10 -1.1433071e-10)
(0.0014105158 -9.221683e-10 1.5468489e-10)
(0.0074511024 2.2466323e-09 -1.5086049e-09)
(0.0074510783 2.2838529e-09 -1.3149046e-10)
(0.0074510805 -2.6879182e-09 -2.6508763e-10)
(0.0074510969 -2.8287858e-09 -6.499207e-11)
(0.0076426045 3.5378316e-09 -1.4072155e-09)
(0.0076425946 4.2290031e-09 -2.200109e-10)
(0.0076425966 -4.0766525e-09 -3.0114839e-10)
(0.0076425994 -4.8727371e-09 -1.6343703e-10)
(0.0060107503 2.3627726e-09 -1.1790636e-09)
(0.0060107635 3.5804074e-09 -2.4306413e-10)
(0.0060107655 -3.0369008e-09 -2.8764091e-10)
(0.0060107461 -4.3964018e-09 -1.9813304e-10)
(0.0041302119 -1.6011711e-09 -9.1947308e-10)
(0.0041302454 -1.2063472e-10 -2.284648e-10)
(0.0041302469 7.3785509e-10 -2.5332298e-10)
(0.0041302102 -8.3416378e-10 -1.9705388e-10)
(0.0025825823 -6.6760794e-09 -6.8487255e-10)
(0.0025826201 -5.3482041e-09 -1.9840611e-10)
(0.002582621 5.6580218e-09 -2.1274398e-10)
(0.0025825833 4.304149e-09 -1.7606814e-10)
(0.0015068836 -1.0915251e-08 -4.9635425e-10)
(0.0015069131 -9.9896393e-09 -1.6384801e-10)
(0.0015069135 9.7873248e-09 -1.72663e-10)
(0.0015068861 8.8563037e-09 -1.4807011e-10)
(0.00085322439 -1.3401228e-08 -3.5425869e-10)
(0.00085324021 -1.2937559e-08 -1.3096946e-10)
(0.00085324019 1.2213318e-08 -1.3665262e-10)
(0.00085322717 1.1745331e-08 -1.1989945e-10)
(0.00050972021 -1.4045656e-08 -2.5066836e-10)
(0.00050972259 -1.3978559e-08 -1.0249885e-10)
(0.00050972232 1.2841923e-08 -1.0626895e-10)
(0.00050972262 1.2760702e-08 -9.4716059e-11)
(0.00036299896 -1.3226192e-08 -1.7665996e-10)
(0.00036299112 -1.3436726e-08 -7.9169544e-11)
(0.0003629907 1.2038375e-08 -8.1673202e-11)
(0.0003630007 1.2219793e-08 -7.3660126e-11)
(0.00032250388 -1.1484268e-08 -1.2448575e-10)
(0.00032248994 -1.1848699e-08 -6.0697758e-11)
(0.00032248947 1.0330867e-08 -6.2295301e-11)
(0.00032250493 1.0651143e-08 -5.6758878e-11)
(0.00032617163 -9.3337118e-09 -8.7977887e-11)
(0.00032615531 -9.749286e-09 -4.6366762e-11)
(0.00032615485 8.2225042e-09 -4.7300694e-11)
(0.00032617209 8.5817928e-09 -4.3520808e-11)
(0.00033737183 -7.1664811e-09 -6.2478259e-11)
(0.00033735585 -7.5607854e-09 -3.5366221e-11)
(0.00033735542 6.0978969e-09 -3.583294e-11)
(0.00033737187 6.4278808e-09 -3.3291107e-11)
(0.00033855727 -5.2270281e-09 -4.4599005e-11)
(0.00033854324 -5.5571728e-09 -2.6961128e-11)
(0.00033854287 4.1972731e-09 -2.712214e-11)
(0.00033855706 4.4592275e-09 -2.5435642e-11)
(0.00032458261 -3.6276188e-09 -3.1969405e-11)
(0.00032457118 -3.8741559e-09 -2.0544878e-11)
(0.00032457086 2.6311115e-09 -2.0523655e-11)
(0.00032458227 2.80926e-09 -1.9415651e-11)
(0.000297137 -2.3822969e-09 -2.2990072e-11)
(0.00029712816 -2.5413929e-09 -1.564234e-11)
(0.00029712789 1.4133662e-09 -1.5522751e-11)
(0.00029713663 1.5068576e-09 -1.4803447e-11)
(0.00026077782 -1.4437484e-09 -1.6604355e-11)
(0.00026077113 -1.520031e-09 -1.1895077e-11)
(0.00026077089 4.9785034e-10 -1.1725438e-11)
(0.00026077746 5.1341965e-10 -1.1271923e-11)
(0.00022049219 -7.3474319e-10 -1.2037266e-11)
(0.00022048704 -7.3554299e-10 -9.0309396e-12)
(0.00022048682 -1.9105287e-10 -8.8389185e-12)
(0.00022049187 -2.4478415e-10 -8.5688515e-12)
(0.00018045495 -1.7036059e-10 -8.7506338e-12)
(0.00018045068 -1.0146194e-10 -6.8423347e-12)
(0.00018045047 -7.3678167e-10 -6.6470548e-12)
(0.00018045465 -8.532232e-10 -6.4972171e-12)
(0.00014359395 3.2960728e-10 -6.3794739e-12)
(0.00014358996 4.6646526e-10 -5.1715468e-12)
(0.00014358973 -1.2181624e-09 -4.9919164e-12)
(0.00014359366 -1.3951214e-09 -4.9129471e-12)
(0.0001116258 8.352657e-10 -4.6547779e-12)
(0.00011162156 1.043912e-09 -3.8985243e-12)
(0.00011162129 -1.7042507e-09 -3.7475132e-12)
(0.0001116255 -1.9452551e-09 -3.7045943e-12)
(8.5317178e-05 1.4063174e-09 -3.3965731e-12)
(8.531222e-05 1.6971366e-09 -2.932356e-12)
(8.5311892e-05 -2.2540622e-09 -2.813481e-12)
(8.5316834e-05 -2.5691969e-09 -2.7866775e-12)
(6.4819199e-05 2.0947181e-09 -2.478341e-12)
(6.4813107e-05 2.4854296e-09 -2.200966e-12)
(6.4812694e-05 -2.9190695e-09 -2.1058226e-12)
(6.4818776e-05 -3.3257365e-09 -2.0910721e-12)
(4.9996353e-05 2.9482208e-09 -1.8079202e-12)
(4.9988723e-05 3.4649721e-09 -1.6487597e-12)
(4.9988196e-05 -3.7468025e-09 -1.5710738e-12)
(4.999581e-05 -4.2707232e-09 -1.5652361e-12)
(4.0723319e-05 4.0141054e-09 -1.3190003e-12)
(4.0713736e-05 4.6930402e-09 -1.2330157e-12)
(4.0713057e-05 -4.7844989e-09 -1.1688791e-12)
(4.0722609e-05 -5.4612408e-09 -1.1688441e-12)
(3.7155992e-05 5.3422659e-09 -9.6285623e-13)
(3.7144005e-05 6.2318178e-09 -9.2080027e-13)
(3.7143126e-05 -6.0821286e-09 -8.6802708e-13)
(3.7155056e-05 -6.9593946e-09 -8.7093825e-13)
(4.000254e-05 6.9873068e-09 -7.0351828e-13)
(3.9987646e-05 8.1514321e-09 -6.8673207e-13)
(3.9986506e-05 -7.6944582e-09 -6.432779e-13)
(4.0001304e-05 -8.8353274e-09 -6.4777955e-13)
(5.083177e-05 9.0094403e-09 -5.1460313e-13)
(5.0813406e-05 1.0531989e-08 -5.1142896e-13)
(5.0811926e-05 -9.6819214e-09 -4.7573762e-13)
(5.0830137e-05 -1.1169248e-08 -4.8115707e-13)
(7.2463472e-05 1.1473994e-08 -3.7686122e-13)
(7.2441023e-05 1.3464438e-08 -3.8025959e-13)
(7.2439101e-05 -1.2110112e-08 -3.5134225e-13)
(7.2461318e-05 -1.4052297e-08 -3.5708031e-13)
(0.00010949128 1.4449321e-08 -2.7631063e-13)
(0.00010946409 1.7050065e-08 -2.8224939e-13)
(0.0001094616 -1.5047683e-08 -2.5933546e-13)
(0.00010948844 -1.7586055e-08 -2.6485659e-13)
(0.00016899392 1.8002875e-08 -2.0281575e-13)
(0.00016896134 2.1398358e-08 -2.0917412e-13)
(0.00016895811 -1.8562419e-08 -1.914286e-13)
(0.0001689902 -2.1880433e-08 -1.9639401e-13)
(0.00026149554 2.2195193e-08 -1.4903608e-13)
(0.00026145695 2.6622944e-08 -1.548791e-13)
(0.00026145278 -2.2715212e-08 -1.4135284e-13)
(0.00026149069 -2.7049631e-08 -1.4560818e-13)
(0.00040223845 2.707159e-08 -1.0963925e-13)
(0.00040219336 3.2835248e-08 -1.1471687e-13)
(0.00040218798 -2.755177e-08 -1.0443112e-13)
(0.00040223215 -3.320583e-08 -1.0795586e-13)
(0.00061283052 3.2651521e-08 -8.0739275e-14)
(0.00061277863 4.0135574e-08 -8.5024074e-14)
(0.00061277173 -3.3091969e-08 -7.719447e-14)
(0.0006128224 -4.045029e-08 -8.0049464e-14)
(0.00092332106 3.8915816e-08 -5.9506659e-14)
(0.0009232624 4.8601399e-08 -6.2850885e-14)
(0.00092325361 -3.9317099e-08 -5.708384e-14)
(0.0009233107 -4.8861658e-08 -5.9366837e-14)
(0.0013747406 4.5792397e-08 -4.3892794e-14)
(0.0013746756 5.8272876e-08 -4.6451385e-14)
(0.0013746645 -4.6155575e-08 -4.222978e-14)
(0.0013747275 -5.8481485e-08 -4.4036519e-14)
(0.0020221072 5.3141639e-08 -3.240078e-14)
(0.002022037 6.9135875e-08 -3.4352794e-14)
(0.002022023 -5.3468296e-08 -3.1253614e-14)
(0.0020220909 -6.9297229e-08 -3.2671863e-14)
(0.0029378537 6.0743147e-08 -2.3934502e-14)
(0.0029377799 8.1103268e-08 -2.5419906e-14)
(0.0029377626 -6.1035404e-08 -2.3139066e-14)
(0.0029378337 -8.1223484e-08 -2.4245152e-14)
(0.004215561 6.8286403e-08 -1.7691437e-14)
(0.0042154863 9.3995672e-08 -1.8819048e-14)
(0.0042154651 -6.8546904e-08 -1.713704e-14)
(0.0042155371 -9.4082625e-08 -1.7995138e-14)
(0.0059738011 7.5368318e-08 -1.3083753e-14)
(0.005973729 1.0752347e-07 -1.3938237e-14)
(0.0059737033 -7.5600172e-08 -1.2695086e-14)
(0.005973773 -1.0758669e-07 -1.3358218e-14)
(0.0083597899 8.1501036e-08 -9.6800707e-15)
(0.0083597247 1.212725e-07 -1.0326236e-14)
(0.0083596941 -8.1707708e-08 -9.4061639e-15)
(0.0083597578 -1.213229e-07 -9.9169159e-15)
(0.011552451 8.6133227e-08 -7.1640959e-15)
(0.011552398 1.3469646e-07 -7.6518692e-15)
(0.011552362 -8.631835e-08 -6.9695245e-15)
(0.011552416 -1.3474582e-07 -7.3619804e-15)
(0.015764392 8.8687256e-08 -5.3025902e-15)
(0.015764358 1.4711943e-07 -5.6711351e-15)
(0.015764317 -8.8854365e-08 -5.1636118e-15)
(0.015764355 -1.471797e-07 -5.4639739e-15)
(0.021242222 8.8612974e-08 -3.9250704e-15)
(0.021242212 1.5775239e-07 -4.202722e-15)
(0.021242167 -8.8765176e-08 -3.8238661e-15)
(0.021242186 -1.5783477e-07 -4.0539876e-15)
(0.02826461 8.5456287e-08 -2.9051249e-15)
(0.02826463 1.6572745e-07 -3.1134689e-15)
(0.028264581 -8.5595881e-08 -2.8295183e-15)
(0.028264578 -1.6584129e-07 -3.0063714e-15)
(0.037137515 7.8937208e-08 -2.1488294e-15)
(0.037137573 1.7015289e-07 -2.3061002e-15)
(0.03713752 -7.9065321e-08 -2.0919556e-15)
(0.037137492 -1.7030462e-07 -2.2267402e-15)
(0.048186151 6.9028281e-08 -1.5879403e-15)
(0.04818625 1.7019093e-07 -1.707541e-15)
(0.048186195 -6.9144604e-08 -1.5444634e-15)
(0.048186142 -1.7038301e-07 -1.6462766e-15)
(0.061743413 5.6020639e-08 -1.1713891e-15)
(0.061743555 1.6515739e-07 -1.2625157e-15)
(0.061743501 -5.6123344e-08 -1.1381132e-15)
(0.061743425 -1.653876e-07 -1.2150834e-15)
(0.078134847 4.0562396e-08 -8.6386063e-16)
(0.078135033 1.5463873e-07 -9.3285885e-16)
(0.078134981 -4.0648407e-08 -8.35032e-16)
(0.078134887 -1.5489998e-07 -8.9349868e-16)
(0.097660562 2.3653586e-08 -6.353966e-16)
(0.097660787 1.3861692e-07 -6.8678072e-16)
(0.097660739 -2.3719645e-08 -6.0806882e-16)
(0.097660634 -1.3889775e-07 -6.5741328e-16)
(0.12057492 6.5863153e-09 -4.66461e-16)
(0.12057518 1.1758607e-07 -5.0610633e-16)
(0.12057514 -6.630485e-09 -4.4137391e-16)
(0.12057503 -1.1787197e-07 -4.800625e-16)
(0.14706528 -9.1703397e-09 -3.4240071e-16)
(0.14706556 9.2638777e-08 -3.7584578e-16)
(0.14706552 9.1493348e-09 -3.3177096e-16)
(0.14706543 -9.291407e-08 -3.4776669e-16)
(0.17723132 -2.2151415e-08 -2.502902e-16)
(0.1772316 6.5493394e-08 -2.8577752e-16)
(0.17723157 2.2150484e-08 -2.4100319e-16)
(0.1772315 -6.5744078e-08 -2.4602728e-16)
(0.21106682 -3.1106883e-08 -1.8557458e-16)
(0.21106709 3.8430199e-08 -2.2388768e-16)
(0.21106706 3.1115221e-08 -1.7202824e-16)
(0.21106702 -3.8646806e-08 -1.6825761e-16)
(0.24844584 -3.5210677e-08 -1.4322648e-16)
(0.24844608 1.4105738e-08 -1.8212474e-16)
(0.24844604 3.5211974e-08 -1.2134513e-16)
(0.24844605 -1.4285025e-08 -1.0966267e-16)
(0.28911482 -3.4238525e-08 -1.2308761e-16)
(0.28911502 -4.7632485e-09 -1.4517088e-16)
(0.28911498 3.4213388e-08 -8.0228628e-17)
(0.28911503 4.6184201e-09 -7.3959683e-17)
(0.33269227 -2.8651932e-08 -1.0915208e-16)
(0.3326924 -1.5828842e-08 -1.2331959e-16)
(0.33269236 2.8583801e-08 -5.2220635e-17)
(0.33269245 1.5712783e-08 -4.9615185e-17)
(0.37867649 -1.9687203e-08 -9.2121555e-17)
(0.37867656 -1.7816956e-08 -1.0696669e-16)
(0.37867651 1.9571298e-08 -3.7480591e-17)
(0.37867662 1.77301e-08 -3.5985868e-17)
(0.42646166 -9.6637876e-09 -7.5695151e-17)
(0.42646168 -1.1919604e-08 -8.3010034e-17)
(0.42646163 9.5583068e-09 -3.2288196e-17)
(0.42646174 1.1889058e-08 -3.0203708e-17)
(0.47536144 -2.6160392e-09 -4.7082261e-17)
(0.47536143 -4.181308e-09 -4.3412516e-17)
(0.47536141 2.5975056e-09 -1.6724527e-17)
(0.47536146 4.1938369e-09 -2.1838594e-17)
)
;

boundaryField
{
    movingWall
    {
        type            fixedValue;
        value           uniform (0.5 0 0);
    }
    CPLReceiveMD
    {
        type            fixedValue;
        value           uniform (-0.011766545 0 0);
    }
    streamwiseIn
    {
        type            cyclic;
    }
    streamwiseOut
    {
        type            cyclic;
    }
    front
    {
        type            cyclic;
    }
    back
    {
        type            cyclic;
    }
    procBoundary0to1
    {
        type            processor;
        value           nonuniform List<vector> 
240
(
(0.0014105195 1.1773689e-09 -5.0362866e-11)
(0.0014105027 8.274268e-10 6.4485289e-11)
(0.0014105035 -1.1905401e-09 2.8764615e-11)
(0.0014105177 -1.1885734e-09 1.0441913e-10)
(0.0074511085 3.0337246e-09 -4.7176388e-11)
(0.007451082 2.738434e-09 6.9932241e-11)
(0.0074510845 -3.1767965e-09 2.56858e-11)
(0.0074511035 -3.5339665e-09 1.1710872e-10)
(0.0076426106 3.933627e-09 -3.4685017e-11)
(0.0076425989 4.7475248e-09 6.3363864e-11)
(0.007642601 -4.3703323e-09 2.2055551e-11)
(0.0076426055 -5.5344004e-09 1.0993167e-10)
(0.006010756 2.4280529e-09 -2.2831898e-11)
(0.006010767 3.9803595e-09 5.4518139e-11)
(0.0060107692 -3.2023455e-09 1.8722132e-11)
(0.0060107518 -4.8854421e-09 9.7099581e-11)
(0.0041302153 -1.7154764e-09 -1.4436746e-11)
(0.0041302473 1.5286547e-10 4.5487425e-11)
(0.0041302489 5.9951879e-10 1.4993749e-11)
(0.0041302135 -1.1812046e-09 8.1770902e-11)
(0.0025825829 -6.9271229e-09 -9.1745094e-12)
(0.0025826198 -5.2196804e-09 3.6945498e-11)
(0.0025826208 5.5525589e-09 1.1212288e-11)
(0.0025825837 4.0824469e-09 6.6425494e-11)
(0.0015068823 -1.1248683e-08 -6.1112494e-12)
(0.0015069114 -9.9814791e-09 2.9328656e-11)
(0.0015069119 9.7062774e-09 7.8063652e-12)
(0.0015068845 8.755697e-09 5.2445221e-11)
(0.00085322218 -1.3765392e-08 -4.4309682e-12)
(0.00085323797 -1.3010882e-08 2.2886353e-11)
(0.000853238 1.2144393e-08 5.0655662e-12)
(0.00085322483 1.1727006e-08 4.046796e-11)
(0.00050971796 -1.4402222e-08 -3.5431139e-12)
(0.00050972041 -1.4096149e-08 1.7589089e-11)
(0.00050972018 1.2777307e-08 3.0052026e-12)
(0.00050972029 1.2787274e-08 3.0643047e-11)
(0.00036299709 -1.3551642e-08 -3.0600302e-12)
(0.00036298933 -1.3570032e-08 1.3327499e-11)
(0.00036298895 1.1975335e-08 1.5238474e-12)
(0.0003629988 1.2264503e-08 2.2840951e-11)
(0.00032250254 -1.1767153e-08 -2.7514725e-12)
(0.00032248866 -1.1978939e-08 9.9649966e-12)
(0.00032248822 1.0269452e-08 5.1258261e-13)
(0.00032250359 1.0697234e-08 1.6800012e-11)
(0.0003261708 -9.5711582e-09 -2.4977965e-12)
(0.0003261545 -9.8660465e-09 7.3591339e-12)
(0.00032615405 8.1637168e-09 -1.3490555e-13)
(0.00032617128 8.6204961e-09 1.2216453e-11)
(0.00033737141 -7.3609325e-09 -2.2475987e-12)
(0.00033735541 -7.6597928e-09 5.3708428e-12)
(0.000337355 6.0428386e-09 -5.1442299e-13)
(0.00033737147 6.4559405e-09 8.7977307e-12)
(0.00033855713 -5.3836487e-09 -1.9855448e-12)
(0.00033854306 -5.638079e-09 3.8777372e-12)
(0.0003385427 4.1468351e-09 -7.0476702e-13)
(0.00033855694 4.476713e-09 6.2844142e-12)
(0.00032458263 -3.7524802e-09 -1.7211254e-12)
(0.00032457116 -3.9387774e-09 2.7726785e-12)
(0.00032457085 2.5858859e-09 -7.6674583e-13)
(0.00032458232 2.8179293e-09 4.4595983e-12)
(0.00029713711 -2.4812569e-09 -1.4708731e-12)
(0.00029712821 -2.5925488e-09 1.9664742e-12)
(0.00029712795 1.373605e-09 -7.4618183e-13)
(0.00029713675 1.5090469e-09 3.1485364e-12)
(0.00026077794 -1.5220581e-09 -1.2371292e-12)
(0.0002607712 -1.560816e-09 1.3855824e-12)
(0.00026077098 4.6347186e-10 -6.7999271e-13)
(0.0002607776 5.1137052e-10 2.2146918e-12)
(0.0002204923 -7.9688706e-10 -1.0239198e-12)
(0.00022048711 -7.6888391e-10 9.7090354e-13)
(0.00022048691 -2.2039123e-10 -5.9362116e-13)
(0.00022049199 -2.4923496e-10 1.5540837e-12)
(0.00018045503 -2.1990917e-10 -8.3492284e-13)
(0.00018045074 -1.2992534e-10 6.7713667e-13)
(0.00018045053 -7.6160203e-10 -5.0356141e-13)
(0.00018045474 -8.5875829e-10 1.0891258e-12)
(0.000143594 2.8994631e-10 -6.7104878e-13)
(0.00014359 4.4070429e-10 4.7074938e-13)
(0.00014358977 -1.2390344e-09 -4.1956646e-13)
(0.00014359372 -1.4009139e-09 7.6335753e-13)
(0.00011162583 8.0346975e-10 -5.3270406e-13)
(0.00011162158 1.0190282e-09 3.2634779e-13)
(0.00011162132 -1.7217243e-09 -3.4281821e-13)
(0.00011162554 -1.9508975e-09 5.3553323e-13)
(8.5317192e-05 1.3808532e-09 -4.179477e-13)
(8.5312229e-05 1.6715653e-09 2.2623903e-13)
(8.5311911e-05 -2.2686528e-09 -2.7534266e-13)
(8.5316854e-05 -2.5745812e-09 3.7663696e-13)
(6.4819206e-05 2.0744826e-09 -3.2438415e-13)
(6.4813113e-05 2.4577602e-09 1.5722702e-13)
(6.4812711e-05 -2.9312687e-09 -2.1781652e-13)
(6.481879e-05 -3.3308906e-09 2.6587064e-13)
(4.9996361e-05 2.9324737e-09 -2.4930874e-13)
(4.9988734e-05 3.4338596e-09 1.0976049e-13)
(4.998822e-05 -3.7570775e-09 -1.7008424e-13)
(4.9995828e-05 -4.2757309e-09 1.8857843e-13)
(4.0723337e-05 4.002369e-09 -1.8992991e-13)
(4.0713759e-05 4.6571324e-09 7.7141532e-14)
(4.0713096e-05 -4.7932388e-09 -1.3140965e-13)
(4.0722641e-05 -5.4661703e-09 1.3449338e-13)
(3.7156031e-05 5.3342445e-09 -1.4356031e-13)
(3.714405e-05 6.189704e-09 5.4689396e-14)
(3.7143191e-05 -6.089636e-09 -1.0044728e-13)
(3.7155113e-05 -6.9642379e-09 9.6504001e-14)
(4.0002613e-05 6.982831e-09 -1.0774508e-13)
(3.9987723e-05 8.101612e-09 3.915783e-14)
(3.9986608e-05 -7.7009504e-09 -7.6015766e-14)
(4.0001399e-05 -8.8399512e-09 6.9702657e-14)
(5.0831893e-05 9.0084247e-09 -8.0343876e-14)
(5.0813529e-05 1.0472862e-08 2.832317e-14)
(5.0812081e-05 -9.6875404e-09 -5.7004904e-14)
(5.0830288e-05 -1.1173349e-08 5.0698233e-14)
(7.2463667e-05 1.1476401e-08 -5.9556484e-14)
(7.2441211e-05 1.3394312e-08 2.06809e-14)
(7.243933e-05 -1.2114927e-08 -4.239748e-14)
(7.2461548e-05 -1.405536e-08 3.7136399e-14)
(0.00010949157 1.4455128e-08 -4.3906303e-14)
(0.00010946437 1.6967184e-08 1.522425e-14)
(0.00010946193 -1.5051697e-08 -3.1299357e-14)
(0.00010948878 -1.7587309e-08 2.7382251e-14)
(0.00016899436 1.8012033e-08 -3.2205114e-14)
(0.00016896174 2.1300959e-08 1.1275632e-14)
(0.00016895857 -1.8565578e-08 -2.2948288e-14)
(0.00016899069 -2.1878811e-08 2.0307722e-14)
(0.00026149617 2.2207592e-08 -2.3511618e-14)
(0.00026145752 2.6509333e-08 8.3998933e-15)
(0.00026145342 -2.2717428e-08 -1.6716351e-14)
(0.00026149138 -2.7043734e-08 1.513293e-14)
(0.00040223934 2.7087024e-08 -1.7088534e-14)
(0.00040219415 3.2703904e-08 6.2990671e-15)
(0.00040218887 -2.7552947e-08 -1.21005e-14)
(0.0004022331 -3.31939e-08 1.131868e-14)
(0.00061283174 3.2669654e-08 -1.236742e-14)
(0.00061277971 3.9985276e-08 4.7506903e-15)
(0.00061277293 -3.3092054e-08 -8.7057476e-15)
(0.00061282369 -4.0430209e-08 8.4886628e-15)
(0.00092332271 3.8936154e-08 -8.9151275e-15)
(0.00092326384 4.8431373e-08 3.5680662e-15)
(0.0009232552 -3.9316132e-08 -6.2264817e-15)
(0.00092331243 -4.8830979e-08 6.376913e-15)
(0.0013747428 4.581426e-08 -6.4013488e-15)
(0.0013746775 5.8082982e-08 2.6826192e-15)
(0.0013746666 -4.6153762e-08 -4.4265504e-15)
(0.0013747298 -5.8437496e-08 4.794176e-15)
(0.0020221101 5.3164145e-08 -4.5785649e-15)
(0.0020220394 6.8926803e-08 2.0208263e-15)
(0.0020220257 -5.3466076e-08 -3.1274282e-15)
(0.0020220939 -6.9237067e-08 3.6043302e-15)
(0.0029378573 6.0765189e-08 -3.2621196e-15)
(0.002937783 8.087672e-08 1.5233618e-15)
(0.0029377659 -6.1033516e-08 -2.195178e-15)
(0.0029378374 -8.1144307e-08 2.7081156e-15)
(0.0042155656 6.8306629e-08 -2.315111e-15)
(0.0042154902 9.3754542e-08 1.1478978e-15)
(0.0042154693 -6.8546432e-08 -1.5300199e-15)
(0.0042155417 -9.398185e-08 2.0324094e-15)
(0.0059738068 7.5385096e-08 -1.6364559e-15)
(0.0059737337 1.0727199e-07 8.6406607e-16)
(0.0059737084 -7.5602551e-08 -1.0581901e-15)
(0.0059737786 -1.0746229e-07 1.5229352e-15)
(0.0083597967 8.1512406e-08 -1.1516712e-15)
(0.0083597304 1.2101633e-07 6.4916303e-16)
(0.0083597002 -8.171467e-08 -7.2583638e-16)
(0.0083597645 -1.2117378e-07 1.1391349e-15)
(0.011552459 8.6136824e-08 -8.0684384e-16)
(0.011552405 1.3444271e-07 4.8681106e-16)
(0.01155237 -8.6331791e-08 -4.931863e-16)
(0.011552424 -1.345722e-07 8.5032978e-16)