/*--------------------------------*- C++ -*----------------------------------*\
| =========                 |                                                 |
| \\      /  F ield         | OpenFOAM: The Open Source CFD Toolbox           |
|  \\    /   O peration     | Version:  3.0.1                                 |
|   \\  /    A nd           | Web:      www.OpenFOAM.org                      |
|    \\/     M anipulation  |                                                 |
\*---------------------------------------------------------------------------*/
FoamFile
{
    version     2.0;
    format      ascii;
    class       volScalarField;
    location    "425";
    object      p;
}
// * * * * * * * * * * * * * * * * * * * * * * * * * * * * * * * * * * * * * //

dimensions      [0 2 -2 0 0 0 0];

internalField   nonuniform List<scalar> 
480
(
4.9443902e-08
7.573394e-08
3.4173035e-08
3.0101691e-08
6.0062653e-08
8.0291238e-08
3.5996373e-08
2.4331722e-08
5.326761e-08
7.5549908e-08
3.8976763e-08
2.5952459e-08
4.5374313e-08
6.6806554e-08
4.2600359e-08
3.304906e-08
4.4523724e-08
5.9532807e-08
4.5592722e-08
4.0981932e-08
4.8581889e-08
5.7016028e-08
4.7988376e-08
4.6855453e-08
5.2910292e-08
5.677566e-08
5.2454039e-08
5.2726547e-08
5.577484e-08
5.709851e-08
5.9082934e-08
5.945845e-08
5.7384003e-08
5.7535099e-08
6.6650413e-08
6.6660284e-08
5.8384325e-08
5.8093661e-08
7.4056235e-08
7.3731801e-08
5.9278066e-08
5.8858562e-08
8.0710123e-08
8.0297366e-08
6.0335686e-08
5.9843769e-08
8.6429389e-08
8.6171443e-08
6.1656053e-08
6.1036434e-08
9.1261793e-08
9.1345313e-08
6.3238204e-08
6.2397166e-08
9.5349126e-08
9.5894253e-08
6.5033687e-08
6.3873119e-08
9.8849644e-08
9.9921769e-08
6.6976381e-08
6.5408771e-08
1.0190166e-07
1.0352994e-07
6.89975e-08
6.6952176e-08
1.0461469e-07
1.0680671e-07
7.1034626e-08
6.8458878e-08
1.0707036e-07
1.0982273e-07
7.303725e-08
6.9894056e-08
1.0932727e-07
1.1263267e-07
7.4968639e-08
7.123332e-08
1.1142585e-07
1.1527804e-07
7.6805607e-08
7.2462474e-08
1.1339425e-07
1.1779017e-07
7.8537111e-08
7.3576697e-08
1.1525183e-07
1.2019265e-07
8.0162119e-08
7.4578716e-08
1.170116e-07
1.2250319e-07
8.1687171e-08
7.5477112e-08
1.1868217e-07
1.2473471e-07
8.3123917e-08
7.6284396e-08
1.2026896e-07
1.2689623e-07
8.4486878e-08
7.7015094e-08
1.2177509e-07
1.2899338e-07
8.5791577e-08
7.7685177e-08
1.2320192e-07
1.3102851e-07
8.7053086e-08
7.8310412e-08
1.2454942e-07
1.3300151e-07
8.8284924e-08
7.8905567e-08
1.2581643e-07
1.3490979e-07
8.9498409e-08
7.9483929e-08
1.2700094e-07
1.3674864e-07
9.0702361e-08
8.0057079e-08
1.281003e-07
1.3851155e-07
9.1903088e-08
8.0634878e-08
1.2911151e-07
1.4019067e-07
9.310456e-08
8.1225593e-08
1.3003142e-07
1.4177714e-07
9.4308698e-08
8.1836118e-08
1.3085706e-07
1.4326157e-07
9.5515742e-08
8.2472236e-08
1.3158581e-07
1.4463438e-07
9.6724634e-08
8.3138886e-08
1.3221566e-07
1.4588619e-07
9.793339e-08
8.3840396e-08
1.3274534e-07
1.470081e-07
9.9139437e-08
8.4580668e-08
1.331745e-07
1.4799203e-07
1.0033986e-07
8.5363292e-08
1.3350373e-07
1.4883086e-07
1.0153169e-07
8.6191576e-08
1.3373464e-07
1.4951872e-07
1.0271201e-07
8.7068496e-08
1.3386981e-07
1.5005115e-07
1.0387806e-07
8.7996511e-08
1.3391275e-07
1.5042529e-07
1.0502732e-07
8.8977317e-08
1.3386776e-07
1.5064007e-07
1.0615751e-07
9.0011462e-08
1.3373984e-07
1.5069649e-07
1.0726655e-07
9.1097845e-08
1.3353451e-07
1.505979e-07
1.0835255e-07
9.2233079e-08
1.3325761e-07
1.5035044e-07
1.0941375e-07
9.3410716e-08
1.3291519e-07
1.4996355e-07
1.1044838e-07
9.4620342e-08
1.3251338e-07
1.4945074e-07
1.1145468e-07
9.584653e-08
1.3205828e-07
1.4883041e-07
1.1243071e-07
9.7067703e-08
1.3155609e-07
1.4812699e-07
1.1337426e-07
9.8254972e-08
1.3101333e-07
1.4737222e-07
1.1428263e-07
9.937104e-08
1.3043741e-07
1.4660657e-07
1.1515227e-07
1.0036906e-07
1.2983766e-07
1.4588091e-07
1.1597841e-07
1.011912e-07
1.2922645e-07
1.4525868e-07
1.1675438e-07
1.0176896e-07
1.2862099e-07
1.4481643e-07
1.1746995e-07
1.0203167e-07
1.2804599e-07
1.4463574e-07
1.1810902e-07
1.0191581e-07
1.2753572e-07
1.4479338e-07
1.1864813e-07
1.0129169e-07
1.2713268e-07
1.4543159e-07
1.1906281e-07
9.9744011e-08
1.2687055e-07
1.4696892e-07
1.1931286e-07
9.6910975e-08
1.2678107e-07
1.4974943e-07
6.9175592e-08
6.3849632e-08
4.3575208e-08
3.8236005e-08
7.0589511e-08
7.6297517e-08
4.0924739e-08
2.980569e-08
6.9053478e-08
8.0758683e-08
4.022008e-08
2.9156851e-08
6.385774e-08
7.7019859e-08
4.3288362e-08
3.6360799e-08
6.0171988e-08
7.0794905e-08
4.7046233e-08
4.5485749e-08
5.9694258e-08
6.6845947e-08
5.0325616e-08
5.2551512e-08
5.9862583e-08
6.4217661e-08
5.5144763e-08
5.8925966e-08
5.9733613e-08
6.2179068e-08
6.1551614e-08
6.535481e-08
5.9476708e-08
6.0670277e-08
6.8578299e-08
7.1682743e-08
5.9418499e-08
5.9758381e-08
7.5374363e-08
7.7627735e-08
5.9754611e-08
5.9441733e-08
8.1489693e-08
8.302994e-08
6.0541695e-08
5.9678958e-08
8.6791193e-08
8.7879154e-08
6.1744989e-08
6.0383632e-08
9.1323689e-08
9.2230349e-08
6.3284063e-08
6.1452301e-08
9.5205686e-08
9.6166525e-08
6.5062325e-08
6.2779597e-08
9.8568586e-08
9.977129e-08
6.6989669e-08
6.4267486e-08
1.0153127e-07
1.0311574e-07
6.8986559e-08
6.5830503e-08
1.0418681e-07
1.0625474e-07
7.0988818e-08
6.7398601e-08
1.0660702e-07
1.0922822e-07
7.2948229e-08
6.8918073e-08
1.0884322e-07
1.1206411e-07
7.483201e-08
7.035117e-08
1.1093196e-07
1.147816e-07
7.6621272e-08
7.1674701e-08
1.1289826e-07
1.1739392e-07
7.8308886e-08
7.2877743e-08
1.1475925e-07
1.1991033e-07
7.9896982e-08
7.3959504e-08
1.1652646e-07
1.2233745e-07
8.1394372e-08
7.4926746e-08
1.1820749e-07
1.2468016e-07
8.2814095e-08
7.579163e-08
1.1980718e-07
1.2694186e-07
8.4171275e-08
7.6569425e-08
1.2132825e-07
1.2912452e-07
8.5481361e-08
7.7276441e-08
1.2277175e-07
1.3122892e-07
8.6758794e-08
7.7929113e-08
1.2413745e-07
1.3325403e-07
8.8016163e-08
7.8543055e-08
1.2542403e-07
1.3519732e-07
8.9263742e-08
7.9132481e-08
1.2662939e-07
1.3705477e-07
9.0509242e-08
7.9709918e-08
1.277508e-07
1.3882104e-07
9.1757869e-08
8.0286148e-08
1.2878522e-07
1.4048966e-07
9.3012541e-08
8.0870323e-08
1.2972949e-07
1.4205329e-07
9.427421e-08
8.1470175e-08
1.3058059e-07
1.4350407e-07
9.5542234e-08
8.2092279e-08
1.3133591e-07
1.4483392e-07
9.6814759e-08
8.2742318e-08
1.3199339e-07
1.4603486e-07
9.808908e-08
8.342532e-08
1.3255174e-07
1.4709934e-07
9.9361949e-08
8.4145842e-08
1.3301055e-07
1.4802043e-07
1.0062986e-07
8.4908085e-08
1.3337036e-07
1.487922e-07
1.0188921e-07
8.571592e-08
1.3363267e-07
1.4940983e-07
1.0313644e-07
8.6572816e-08
1.3379994e-07
1.4986989e-07
1.0436818e-07
8.7481709e-08
1.3387554e-07
1.5017047e-07
1.0558123e-07
8.8444712e-08
1.3386361e-07
1.5031147e-07
1.0677263e-07
8.9462735e-08
1.3376893e-07
1.5029482e-07
1.0793957e-07
9.0534974e-08
1.3359678e-07
1.5012481e-07
1.0907942e-07
9.165827e-08
1.3335274e-07
1.4980856e-07
1.1018962e-07
9.2826334e-08
1.3304256e-07
1.4935651e-07
1.1126769e-07
9.4028826e-08
1.3267199e-07
1.4878317e-07
1.1231111e-07
9.5250319e-08
1.3224674e-07
1.4810802e-07
1.1331733e-07
9.6469188e-08
1.3177252e-07
1.4735654e-07
1.1428367e-07
9.7656498e-08
1.3125534e-07
1.4656152e-07
1.1520718e-07
9.8775016e-08
1.3070205e-07
1.4576438e-07
1.1608437e-07
9.9778244e-08
1.3012132e-07
1.4501681e-07
1.1691074e-07
1.0060929e-07
1.2952504e-07
1.4438279e-07
1.1768016e-07
1.0120162e-07
1.2893002e-07
1.4393886e-07
1.1838299e-07
1.0148825e-07
1.2836041e-07
1.4376561e-07
1.1900345e-07
1.0141168e-07
1.2784905e-07
1.4393692e-07
1.1951807e-07
1.0085078e-07
1.2743404e-07
1.4458985e-07
1.1990084e-07
9.9399127e-08
1.2713944e-07
1.4613825e-07
1.2011158e-07
9.6713979e-08
1.2696863e-07
1.4890986e-07
)
;

boundaryField
{
    movingWall
    {
        type            zeroGradient;
    }
    CPLReceiveMD
    {
        type            zeroGradient;
    }
    streamwiseIn
    {
        type            cyclic;
    }
    streamwiseOut
    {
        type            cyclic;
    }
    front
    {
        type            cyclic;
    }
    back
    {
        type            cyclic;
    }
    procBoundary0to1
    {
        type            processor;
        value           nonuniform List<scalar> 
240
(
6.9455391e-08
6.6047659e-08
3.9126227e-08
1.4486034e-08
6.471714e-08
7.5222506e-08
4.3370865e-08
1.3716809e-08
6.0978511e-08
7.4922868e-08
4.6774019e-08
2.0907169e-08
5.7636869e-08
6.9424e-08
4.9918278e-08
3.2571456e-08
5.7130314e-08
6.3955488e-08
5.2031389e-08
4.3398789e-08
5.965275e-08
6.2123412e-08
5.3431459e-08
5.0755439e-08
6.1843359e-08
6.1816063e-08
5.6933272e-08
5.7112524e-08
6.2640127e-08
6.1666894e-08
6.2687728e-08
6.3699049e-08
6.2508646e-08
6.1466178e-08
6.9499256e-08
7.0454774e-08
6.2138951e-08
6.1358687e-08
7.6274334e-08
7.6968449e-08
6.1993713e-08
6.1484501e-08
8.2415371e-08
8.2947936e-08
6.2283313e-08
6.1909983e-08
8.7727718e-08
8.8284649e-08
6.304405e-08
6.2635389e-08
9.2243366e-08
9.299678e-08
6.4225824e-08
6.3618577e-08
9.6087621e-08
9.7165203e-08
6.5739469e-08
6.479682e-08
9.9403187e-08
1.0088834e-07
6.7482509e-08
6.6101838e-08
1.0231595e-07
1.0425818e-07
6.9361766e-08
6.7468986e-08
1.0492467e-07
1.0735131e-07
7.1297998e-08
6.8842416e-08
1.0730244e-07
1.1022757e-07
7.3228774e-08
7.0177675e-08
1.0950107e-07
1.1293218e-07
7.510887e-08
7.1442541e-08
1.1155637e-07
1.1549879e-07
7.6909068e-08
7.2616607e-08
1.1349274e-07
1.1795237e-07
7.8614055e-08
7.3690216e-08
1.1532637e-07
1.2031155e-07
8.0219796e-08
7.4662392e-08
1.1706819e-07
1.2259017e-07
8.1730719e-08
7.553886e-08
1.1872525e-07
1.2479823e-07
8.3156996e-08
7.6329584e-08
1.2030182e-07
1.2694254e-07
8.4512134e-08
7.7048105e-08
1.2180019e-07
1.2902711e-07
8.5810939e-08
7.770928e-08
1.2322112e-07
1.3105306e-07
8.7067968e-08
7.832801e-08
1.245641e-07
1.3301936e-07
8.8296382e-08
7.8918419e-08
1.2582767e-07
1.3492276e-07
8.9507239e-08
7.9493316e-08
1.2700954e-07
1.3675804e-07
9.0709165e-08
8.0063937e-08
1.2810687e-07
1.3851836e-07
9.1908328e-08
8.0639889e-08
1.2911653e-07
1.4019559e-07
9.310859e-08
8.1229254e-08
1.3003525e-07
1.4178069e-07
9.4311793e-08
8.1838792e-08
1.3085997e-07
1.4326413e-07
9.5518116e-08
8.2474189e-08
1.3158802e-07
1.4463623e-07
9.6726451e-08
8.3140312e-08
1.3221734e-07
1.4588752e-07
9.7934778e-08
8.3841437e-08
1.3274661e-07
1.4700905e-07
9.9140496e-08
8.4581428e-08
1.3317546e-07
1.4799271e-07
1.0034067e-07
8.5363847e-08
1.3350446e-07
1.4883135e-07
1.0153231e-07
8.6191979e-08
1.3373519e-07
1.4951907e-07
1.0271247e-07
8.7068789e-08
1.3387022e-07
1.500514e-07
1.0387841e-07
8.7996724e-08
1.3391306e-07
1.5042546e-07
1.0502759e-07
8.8977471e-08
1.3386799e-07
1.506402e-07
1.0615771e-07
9.0011574e-08
1.3374002e-07
1.5069658e-07
1.072667e-07
9.1097926e-08
1.3353464e-07
1.5059796e-07
1.0835267e-07
9.2233138e-08
1.3325771e-07
1.5035048e-07
1.0941383e-07
9.3410759e-08
1.3291527e-07
1.4996359e-07
1.1044845e-07
9.4620373e-08
1.3251343e-07
1.4945076e-07
1.1145473e-07
9.5846553e-08
1.3205832e-07
1.4883042e-07
1.1243075e-07
9.706772e-08
1.3155612e-07
1.48127e-07
1.1337429e-07
9.8254984e-08
1.3101335e-07
1.4737223e-07
1.1428265e-07
9.9371049e-08
1.3043743e-07
1.4660658e-07
1.1515229e-07
1.0036906e-07
1.2983767e-07
1.4588091e-07
1.1597842e-07
1.0119121e-07
1.2922646e-07
1.4525868e-07
1.1675439e-07
1.0176896e-07
1.2862099e-07
1.4481644e-07
1.1746996e-07
1.0203167e-07
1.2804599e-07
1.4463574e-07
1.1810903e-07
1.0191581e-07
1.2753572e-07
1.4479338e-07
1.1864814e-07
1.012917e-07
1.2713268e-07
1.4543159e-07
1.1906281e-07
9.9744013e-08
1.2687055e-07
1.4696892e-07
1.1931286e-07
9.6910977e-08
1.2678107e-07
1.4974943e-07
)
;
    }
    procBoundary0to1throughfront
    {
        type            processorCyclic;
        value           nonuniform List<scalar> 
240
(
7.2109868e-08
7.2250088e-08
6.9330363e-08
6.302459e-08
5.86642e-08
5.7926629e-08
5.8119257e-08
5.8188513e-08
5.8184711e-08
5.837603e-08
5.89322e-08
5.9901637e-08
6.1253238e-08
6.2908961e-08
6.4778842e-08
6.6776478e-08
6.8826903e-08
7.0869648e-08
7.2859506e-08
7.4766112e-08
7.6572464e-08
7.8272864e-08
7.9870523e-08
8.1375057e-08
8.280011e-08
8.416125e-08
8.547426e-08
8.6753839e-08
8.801277e-08
8.9261473e-08
9.0507773e-08
9.175696e-08
9.3012017e-08
9.4273945e-08
9.5542136e-08
9.6814766e-08
9.8089148e-08
9.9362048e-08
1.0062997e-07
1.0188932e-07
1.0313654e-07
1.0436827e-07
1.0558132e-07
1.067727e-07
1.0793963e-07
1.0907947e-07
1.1018966e-07
1.1126772e-07
1.1231113e-07
1.1331735e-07
1.1428369e-07
1.152072e-07
1.1608438e-07
1.1691075e-07
1.1768016e-07
1.1838299e-07
1.1900345e-07
1.1951808e-07
1.1990085e-07
1.2011158e-07
5.9466034e-08
7.2541255e-08
7.7819742e-08
7.4903222e-08
6.9405322e-08
6.6041995e-08
6.3849683e-08
6.2114095e-08
6.0798308e-08
5.9993235e-08
5.9724574e-08
5.9968243e-08
6.0653831e-08
6.1689891e-08
6.2979405e-08
6.4429634e-08
6.5958176e-08
6.7496472e-08
6.8991259e-08
7.040459e-08
7.1712744e-08
7.2904129e-08
7.3977255e-08
7.4938246e-08
7.5798867e-08
7.6573738e-08
7.7278803e-08
7.7930216e-08
7.8543381e-08
7.9132358e-08
7.970956e-08
8.0285691e-08
8.0869848e-08
8.1469728e-08
8.2091882e-08
8.2741979e-08
8.3425039e-08
8.4145614e-08
8.4907902e-08
8.5715776e-08
8.6572704e-08
8.7481623e-08
8.8444646e-08
8.9462685e-08
9.0534936e-08
9.1658241e-08
9.2826313e-08
9.4028809e-08
9.5250307e-08
9.6469178e-08
9.7656491e-08
9.8775012e-08
9.977824e-08
1.0060929e-07
1.0120162e-07
1.0148825e-07
1.0141168e-07
1.0085078e-07
9.9399126e-08
9.6713979e-08
3.8315741e-08
3.5578319e-08
3.5171241e-08
3.8776986e-08
4.319695e-08
4.7167626e-08
5.2634547e-08
5.9610303e-08
6.7111018e-08
7.4286517e-08
8.0695949e-08
8.621862e-08
9.0913686e-08
9.4913396e-08
9.836105e-08
1.01384e-07
1.040821e-07
1.0653234e-07
1.0878989e-07
1.1089358e-07
1.1287044e-07
1.1473902e-07
1.1651171e-07
1.1819673e-07
1.1979935e-07
1.2132258e-07
1.2276768e-07
1.2413455e-07
1.25422e-07
1.2662799e-07
1.2774986e-07
1.2878461e-07
1.2972911e-07
1.3058037e-07
1.3133579e-07
1.3199335e-07
1.3255175e-07
1.3301059e-07
1.333704e-07
1.3363272e-07
1.3379999e-07
1.3387559e-07
1.3386365e-07
1.3376897e-07
1.3359681e-07
1.3335277e-07
1.3304259e-07
1.3267201e-07
1.3224675e-07
1.3177253e-07
1.3125535e-07
1.3070205e-07
1.3012133e-07
1.2952504e-07
1.2893003e-07
1.2836041e-07
1.2784906e-07
1.2743404e-07
1.2713944e-07
1.2696863e-07
3.1092468e-08
2.276777e-08
2.2764824e-08
3.1033481e-08
4.1386285e-08
4.9625073e-08
5.6997224e-08
6.4204368e-08
7.1092886e-08
7.7415167e-08
8.3052322e-08
8.803133e-08
9.2440663e-08
9.6389603e-08
9.9980986e-08
1.0329902e-07
1.0640702e-07
1.0934992e-07
1.121583e-07
1.1485249e-07
1.174459e-07
1.199475e-07
1.2236336e-07
1.2469773e-07
1.269534e-07
1.291318e-07
1.3123325e-07
1.332564e-07
1.3519841e-07
1.3705508e-07
1.388209e-07
1.4048927e-07
1.420528e-07
1.4350356e-07
1.4483344e-07
1.4603443e-07
1.4709897e-07
1.4802012e-07
1.4879194e-07
1.4940962e-07
1.4986972e-07
1.5017034e-07
1.5031137e-07
1.5029473e-07
1.5012475e-07
1.4980851e-07
1.4935647e-07
1.4878314e-07
1.48108e-07
1.4735652e-07
1.465615e-07
1.4576437e-07
1.450168e-07
1.4438278e-07
1.4393886e-07
1.437656e-07
1.4393692e-07
1.4458985e-07
1.4613825e-07
1.4890986e-07
)
;
    }
}


// ************************************************************************* //
