/*--------------------------------*- C++ -*----------------------------------*\
| =========                 |                                                 |
| \\      /  F ield         | OpenFOAM: The Open Source CFD Toolbox           |
|  \\    /   O peration     | Version:  3.0.1                                 |
|   \\  /    A nd           | Web:      www.OpenFOAM.org                      |
|    \\/     M anipulation  |                                                 |
\*---------------------------------------------------------------------------*/
FoamFile
{
    version     2.0;
    format      ascii;
    class       surfaceScalarField;
    location    "425";
    object      phi;
}
// * * * * * * * * * * * * * * * * * * * * * * * * * * * * * * * * * * * * * //

dimensions      [0 3 -1 0 0 0 0];

internalField   nonuniform List<scalar> 
1072
(
0.33521905
-1.2991192e-07
-1.8619859e-08
0.33521899
4.0057239e-08
7.8237782e-10
0.33521906
-9.5340952e-08
-4.4464393e-09
-1.0036373e-07
-6.5648392e-09
0.38297015
-1.3974811e-07
-1.6329722e-08
0.38297022
-1.7882185e-08
-3.2459592e-09
0.38297015
1.6801957e-08
-3.3060008e-09
-7.0525176e-08
-7.7169062e-09
0.30362386
-3.2356949e-07
-9.8342743e-09
0.30362405
-2.1194363e-07
-5.7619239e-09
0.30362386
2.4481343e-07
-1.1457435e-09
9.9737998e-08
-5.5784129e-09
0.24006555
-5.7302656e-07
-6.8514687e-09
0.2400658
-4.7198453e-07
-6.4379321e-09
0.24006556
5.0578953e-07
-4.2201555e-10
3.4612686e-07
-4.2253524e-09
0.20996379
-7.3476664e-07
-4.3639329e-09
0.20996397
-6.5516676e-07
-6.0599734e-09
0.2099638
6.6489368e-07
-5.3020184e-10
5.2108853e-07
-3.7250202e-09
0.20187495
-7.1746286e-07
-2.5631509e-09
0.20187495
-6.5278663e-07
-5.0371515e-09
0.20187495
6.4391444e-07
-7.9057033e-10
5.1652195e-07
-3.5880693e-09
0.20489557
-5.9249205e-07
-1.386735e-09
0.20489545
-5.226624e-07
-3.8114522e-09
0.20489556
5.1833309e-07
-9.2662554e-10
3.9026399e-07
-3.3918789e-09
0.21364621
-4.5432852e-07
-7.1774351e-10
0.21364606
-3.6272991e-07
-2.6741202e-09
0.21364618
3.8240923e-07
-8.9561341e-10
2.388747e-07
-2.9900248e-09
0.22650634
-3.5085796e-07
-2.8830373e-10
0.22650622
-2.301703e-07
-1.722047e-09
0.22650631
2.8271658e-07
-7.3953954e-10
1.17324e-07
-2.4167993e-09
0.24342281
-2.8572073e-07
-6.6889353e-11
0.24342272
-1.3501095e-07
-9.3758931e-10
0.24342278
2.2176252e-07
-5.3992496e-10
3.3535927e-08
-1.7492726e-09
0.26468607
-2.4252253e-07
2.731579e-11
0.26468601
-6.2370627e-08
-4.8106051e-10
0.26468605
1.8250209e-07
-3.5197744e-10
-2.8177056e-08
-1.2675273e-09
0.29048896
-2.03575e-07
5.4159066e-11
0.29048889
6.4671544e-09
-1.343837e-10
0.29048893
1.4696685e-07
-1.965916e-10
-8.7344133e-08
-8.1999248e-10
0.32086403
-1.5787566e-07
5.1547827e-11
0.32086396
8.4389012e-08
9.9530624e-11
0.320864
1.0412581e-07
-7.7127215e-11
-1.5706902e-07
-4.6402442e-10
0.35574217
-1.0195997e-07
4.5684197e-11
0.35574208
1.7637068e-07
2.4761997e-10
0.35574214
5.0596046e-08
1.0846535e-11
-2.4226717e-07
-1.9880788e-10
0.39502181
-3.7803213e-08
4.5171426e-11
0.39502171
2.8116312e-07
3.3224367e-10
0.39502177
-1.1522107e-08
6.6816401e-11
-3.4149722e-07
-1.3938009e-11
0.43861748
2.9746456e-08
4.0731838e-11
0.43861737
3.9387114e-07
3.7157027e-10
0.43861744
-7.726352e-08
1.0726054e-10
-4.4963241e-07
1.0448228e-10
0.48648592
9.4990875e-08
3.8571257e-11
0.48648581
5.0817726e-07
3.7992581e-10
0.48648587
-1.408368e-07
1.3490963e-10
-5.6014389e-07
1.7056884e-10
0.53863578
1.5271203e-07
4.2008399e-11
0.53863567
6.1788769e-07
3.6830921e-10
0.53863573
-1.9696829e-07
1.5403273e-10
-6.6665672e-07
1.9717021e-10
0.59512689
1.9888349e-07
5.0866275e-11
0.59512679
7.1781716e-07
3.4490302e-10
0.59512684
-2.4159774e-07
1.6338942e-10
-7.6384244e-07
1.9531747e-10
0.65606369
2.3091866e-07
6.3327701e-11
0.6560636
8.0416601e-07
3.1555615e-10
0.65606364
-2.7212511e-07
1.7040294e-10
-8.4779298e-07
1.7412333e-10
0.72158604
2.476163e-07
7.7276804e-11
0.72158597
8.7454578e-07
2.8557515e-10
0.72158598
-2.8734364e-07
1.7434429e-10
-9.1604025e-07
1.4135274e-10
0.79185944
2.4893816e-07
9.0819145e-11
0.79185938
9.2779771e-07
2.5578371e-10
0.79185939
-2.8721306e-07
1.7549182e-10
-9.6736435e-07
1.027517e-10
0.86706597
2.3572024e-07
1.0248873e-10
0.86706593
9.637073e-07
2.2809796e-10
0.86706592
-2.7256836e-07
1.7442194e-10
-1.0015037e-06
6.186983e-11
0.94739651
2.0938676e-07
1.1125139e-10
0.94739649
9.8270213e-07
2.0360628e-10
0.94739646
-2.4483195e-07
1.7150568e-10
-1.0188497e-06
2.2097269e-11
1.0330445
1.7170645e-07
1.1645657e-10
1.0330444
9.855829e-07
1.8263664e-10
1.0330444
-2.0576963e-07
1.674138e-10
-1.020174e-06
-1.4285004e-11
1.1242008
1.2460727e-07
1.1779941e-10
1.1242008
9.7331031e-07
1.6524629e-10
1.1242008
-1.5730512e-07
1.6237532e-10
-1.0064119e-06
-4.6791527e-11
1.2210505
7.0050286e-08
1.1524261e-10
1.2210506
9.4685653e-07
1.514546e-10
1.2210505
-1.0139487e-07
1.5655823e-10
-9.7851818e-07
-7.2040281e-11
1.3237697
9.9546454e-09
1.0897668e-10
1.3237697
9.0711761e-07
1.4109235e-10
1.3237697
-3.9953482e-08
1.500863e-10
-9.3737421e-07
-9.1108276e-11
1.4325233
-5.3839117e-08
9.9305894e-11
1.4325234
8.5487584e-07
1.3389264e-10
1.4325233
2.518213e-08
1.4304771e-10
-8.8375128e-07
-1.039713e-10
1.5474637
-1.1957999e-07
8.6593366e-11
1.5474637
7.9079972e-07
1.2953894e-10
1.5474637
9.2263487e-08
1.3550096e-10
-8.1831057e-07
-1.1086901e-10
1.668729
-1.8560314e-07
7.1225466e-11
1.668729
7.1546993e-07
1.2769608e-10
1.668729
1.5962656e-07
1.274859e-10
-7.416286e-07
-1.1220528e-10
1.7964418
-2.5032105e-07
5.3590672e-11
1.7964419
6.2942077e-07
1.280296e-10
1.7964418
2.2568303e-07
1.1902935e-10
-6.5423826e-07
-1.0848267e-10
1.9307082
-3.1221616e-07
3.4061804e-11
1.9307083
5.3318905e-07
1.3021512e-10
1.9307082
2.889129e-07
1.1014902e-10
-5.5667732e-07
-1.0024954e-10
2.0716162
-3.698389e-07
1.2984753e-11
2.0716163
4.2736425e-07
1.339428e-10
2.0716162
3.4786291e-07
1.0085727e-10
-4.4953801e-07
-8.8063772e-11
2.2192347
-4.2181391e-07
-9.3250815e-12
2.2192348
3.1263577e-07
1.389193e-10
2.2192348
4.0115295e-07
9.1164035e-11
-3.3351376e-07
-7.2469718e-11
2.3736125
-4.6685515e-07
-3.2582497e-11
2.3736126
1.8983444e-07
1.4486822e-10
2.3736125
4.474917e-07
8.1079866e-11
-2.0944016e-07
-5.3985735e-11
2.5347767
-5.0378993e-07
-5.6529809e-11
2.5347768
5.9966902e-08
1.5153002e-10
2.5347768
4.8570098e-07
7.0618622e-11
-7.8329018e-08
-3.2963627e-11
2.7027319
-5.3159051e-07
-8.0997817e-11
2.7027321
-7.5757766e-08
1.5866212e-10
2.702732
5.1474789e-07
5.9799563e-11
5.8606035e-08
-1.0131917e-11
2.8774592
-5.4941257e-07
-1.0560561e-10
2.8774593
-2.1590881e-07
1.6603856e-10
2.8774593
5.337832e-07
4.8648214e-11
1.9993002e-07
1.4256173e-11
3.0589147
-5.5663692e-07
-1.3022065e-10
3.0589148
-3.5882118e-07
1.734505e-10
3.0589148
5.4218374e-07
3.7198305e-11
3.4397456e-07
3.9806411e-11
3.2470294
-5.5291366e-07
-1.5461534e-10
3.2470295
-5.0258818e-07
1.8071632e-10
3.2470295
5.3959663e-07
2.5492726e-11
4.8883072e-07
6.614805e-11
3.4417078
-5.3820551e-07
-1.785586e-10
3.4417079
-6.4505765e-07
1.8766073e-10
3.441708
5.2598269e-07
1.3583964e-11
6.3234533e-07
9.292589e-11
3.6428279
-5.1282749e-07
-2.0181051e-10
3.6428281
-7.8382976e-07
1.9412972e-10
3.6428281
5.0165621e-07
1.5349489e-12
7.7211888e-07
1.1979339e-10
3.8502405
-4.7748004e-07
-2.2411966e-10
3.8502407
-9.162544e-07
1.9999057e-10
3.8502407
4.67318e-07
-1.0580345e-11
9.0550285e-07
1.4640667e-10
4.0637691
-4.3327211e-07
-2.4522259e-10
4.0637692
-1.0394263e-06
2.0513377e-10
4.0637693
4.2407838e-07
-2.2676397e-11
1.0295947e-06
1.7241911e-10
4.2832099
-3.8173051e-07
-2.6484512e-10
4.2832101
-1.1501769e-06
2.0946391e-10
4.2832101
3.7346631e-07
-3.4654827e-11
1.1412298e-06
1.9747703e-10
4.5083323
-3.247911e-07
-2.8270751e-10
4.5083324
-1.2450639e-06
2.1294881e-10
4.5083324
3.1742011e-07
-4.6402594e-11
1.2369699e-06
2.2121688e-10
4.7388788
-2.647663e-07
-2.985328e-10
4.7388789
-1.3203626e-06
2.1554592e-10
4.738879
2.5825446e-07
-5.7789552e-11
1.3130947e-06
2.432644e-10
4.9745663
-2.0428235e-07
-3.1205986e-10
4.9745664
-1.3720706e-06
2.1725472e-10
4.9745664
1.9859676e-07
-6.8665948e-11
1.3656055e-06
2.6323634e-10
5.2150866
-1.4617716e-07
-3.230615e-10
5.2150867
-1.395947e-06
2.1809292e-10
5.2150867
1.4128397e-07
-7.8860799e-11
1.3902636e-06
2.807459e-10
5.4601076
-9.334756e-08
-3.3136738e-10
5.4601076
-1.3876283e-06
2.1807668e-10
5.4601076
8.9208496e-08
-8.8183814e-11
1.3827044e-06
2.9541385e-10
5.7092744
-4.8531822e-08
-3.3688835e-10
5.7092744
-1.3428828e-06
2.1718274e-10
5.7092744
4.5099368e-08
-9.6426278e-11
1.3386921e-06
3.0688656e-10
5.9622114
-1.4014448e-08
-3.3963618e-10
5.9622113
-1.2581016e-06
2.1528343e-10
5.9622113
1.1225731e-08
-1.0336047e-10
1.254609e-06
3.1486721e-10
6.2185231
8.750776e-09
-3.3972385e-10
6.2185229
-1.1311431e-06
2.1203893e-10
6.218523
-1.0980342e-08
-1.0879916e-10
1.1283022e-06
3.1916355e-10
6.4777967
1.957694e-08
-3.3733734e-10
6.4777965
-9.6265594e-07
2.0672962e-10
6.4777965
-2.1356579e-08
-1.1260665e-10
9.6040756e-07
3.1977348e-10
6.7396037
1.9962141e-08
-3.326926e-10
6.7396035
-7.5795843e-07
1.9801208e-10
6.7396035
-2.1428705e-08
-1.1456934e-10
7.5624288e-07
3.1706307e-10
7.0035023
1.3313196e-08
-3.2591282e-10
7.0035021
-5.2943006e-07
1.8369449e-10
7.0035021
-1.4616901e-08
-1.1417249e-10
5.2820868e-07
3.1207964e-10
7.2690395
4.6875577e-09
-3.1698942e-10
7.2690392
-2.9911037e-07
1.6066134e-10
7.2690392
-5.9584662e-09
-1.0981243e-10
2.9841322e-07
3.0671643e-10
7.5357533
-4.8235278e-10
-3.0536511e-10
7.5357531
-1.0191656e-07
1.2566942e-10
7.5357531
-7.7110135e-10
-9.7977616e-11
1.0189395e-07
3.0268009e-10
7.8031757
-2.5977958e-10
7.8031756
6.4070882e-11
7.8031756
-6.1001809e-11
2.7306626e-10
0.33521905
3.3804453e-08
0.33521897
1.5080769e-08
0.33521903
-5.5452525e-08
-6.1646826e-08
0.38297009
-8.6178935e-08
0.38297017
-5.0104081e-08
0.38297005
5.7630997e-08
-1.7398077e-08
0.30362385
-2.9451135e-07
0.30362404
-2.1393786e-07
0.30362384
2.5716961e-07
1.3440366e-07
0.24006556
-5.5910648e-07
0.24006581
-4.5537695e-07
0.24006556
5.0371053e-07
3.6940822e-07
0.20996383
-7.2611792e-07
0.20996401
-6.2597808e-07
0.20996384
6.5094426e-07
5.3282591e-07
0.20187499
-7.1324593e-07
0.20187499
-6.1845878e-07
0.20187499
6.2340648e-07
5.1931097e-07
0.2048956
-5.9420066e-07
0.20489548
-4.9058224e-07
0.20489558
4.9657498e-07
3.885042e-07
0.21364621
-4.6194387e-07
0.21364606
-3.3727551e-07
0.21364618
3.6233104e-07
2.3586918e-07
0.22650633
-3.6281096e-07
0.22650621
-2.1241972e-07
0.2265063
2.651494e-07
1.1446787e-07
0.24342279
-3.0000772e-07
0.24342271
-1.2388905e-07
0.24342276
2.0648305e-07
3.1159408e-08
0.26468606
-2.5744895e-07
0.264686
-5.6374439e-08
0.26468604
1.6901431e-07
-3.0540155e-08
0.29048895
-2.1798559e-07
0.29048889
8.9639997e-09
0.29048892
1.3488795e-07
-8.9976352e-08
0.32086403
-1.7111621e-07
0.32086396
8.4720946e-08
0.320864
9.3254742e-08
-1.6006109e-07
0.35574217
-1.1372727e-07
0.35574208
1.755181e-07
0.35574213
4.0866013e-08
-2.4555333e-07
0.39502181
-4.8039128e-08
0.3950217
2.797957e-07
0.39502177
-2.0130364e-08
-3.449332e-07
0.43861747
2.0968551e-08
0.43861736
3.9242033e-07
0.43861743
-8.4751684e-08
-4.5305669e-07
0.48648591
8.7530618e-08
0.4864858
5.0690454e-07
0.48648586
-1.4722123e-07
-5.6341186e-07
0.53863577
1.4640968e-07
0.53863566
6.1693574e-07
0.53863572
-2.022871e-07
-6.696576e-07
0.59512688
1.9358356e-07
0.59512678
7.172485e-07
0.59512682
-2.4591763e-07
-7.6650272e-07
0.65606368
2.2648011e-07
0.65606359
8.0399116e-07
0.65606362
-2.7552716e-07
-8.5007296e-07
0.72158602
2.4391595e-07
0.72158595
8.7474525e-07
0.72158597
-2.8992155e-07
-9.1792745e-07
0.79185942
2.458705e-07
0.79185937
9.2833214e-07
0.79185937
-2.8906701e-07
-9.6886679e-07
0.86706595
2.3319567e-07
0.86706592
9.6452718e-07
0.8670659
-2.7380011e-07
-1.0026449e-06
0.94739649
2.073294e-07
0.94739647
9.837547e-07
0.94739645
-2.4554087e-07
-1.0196625e-06
1.0330444
1.7005178e-07
1.0330444
9.8681451e-07
1.0330444
-2.0604923e-07
-1.0206954e-06
1.1242008
1.2330021e-07
1.1242008
9.7466838e-07
1.1242008
-1.5724148e-07
-1.0066826e-06
1.2210505
6.9043855e-08
1.2210506
9.4829137e-07
1.2210505
-1.0106557e-07
-9.78574e-07
1.3237697
9.2087634e-09
1.3237697
9.0858329e-07
1.3237697
-3.9427476e-08
-9.3724734e-07
1.4325233
-5.4358544e-08
1.4325233
8.5633058e-07
1.4325233
2.5844173e-08
-8.8346917e-07
1.5474637
-1.1990175e-07
1.5474637
7.9220586e-07
1.5474637
9.3008717e-08
-8.1789547e-07
1.6687289
-1.8575136e-07
1.668729
7.1679393e-07
1.668729
1.6040917e-07
-7.4109739e-07
1.7964418
-2.5031569e-07
1.7964419
6.30633e-07
1.7964418
2.264635e-07
-6.5360279e-07
1.9307082
-3.1207338e-07
1.9307083
5.3426355e-07
1.9307082
2.8965728e-07
-5.5594487e-07
2.0716161
-3.6957151e-07
2.0716162
4.2827856e-07
2.0716162
3.4854213e-07
-4.4871198e-07
2.2192347
-4.2143172e-07
2.2192348
3.1337076e-07
2.2192347
4.0174227e-07
-3.3259435e-07
2.3736125
-4.663654e-07
2.3736126
1.9037412e-07
2.3736125
4.4797018e-07
-2.084251e-07
2.5347767
-5.0319769e-07
2.5347768
6.0298337e-08
2.5347768
4.860511e-07
-7.7213944e-08
2.7027319
-5.3089942e-07
2.702732
-7.5644557e-08
2.702732
5.1495527e-07
5.982607e-08
2.8774592
-5.4862469e-07
2.8774593
-2.1602087e-07
2.8774593
5.3383636e-07
2.0126038e-07
3.0589147
-5.5575352e-07
3.0589148
-3.5916259e-07
3.0589148
5.4207402e-07
3.4542035e-07
3.2470294
-5.5193572e-07
3.2470295
-5.0315997e-07
3.2470295
5.3931816e-07
4.9039613e-07
3.4417078
-5.3713416e-07
3.4417079
-6.4585765e-07
3.441708
5.2553244e-07
6.3403305e-07
3.6428279
-5.1166452e-07
3.6428281
-7.848524e-07
3.6428281
5.0103413e-07
7.7392949e-07
3.8502405
-4.7622841e-07
3.8502407
-9.1749042e-07
3.8502407
4.6652726e-07
9.0743419e-07
4.0637691
-4.3193658e-07
4.0637692
-1.0408624e-06
4.0637693
4.231257e-07
1.0316413e-06
4.28321
-3.8031825e-07
4.2832101
-1.1517952e-06
4.2832101
3.7236233e-07
1.1433818e-06
4.5083323
-3.2331241e-07
4.5083324
-1.2468415e-06
4.5083325
3.1617991e-07
1.2392129e-06
4.7388788
-2.6323544e-07
4.7388789
-1.3222708e-06
4.738879
2.5689811e-07
1.3154083e-06
4.9745664
-2.0271836e-07
4.9745664
-1.3740742e-06
4.9745665
1.9714987e-07
1.3679621e-06
5.2150866
-1.4460471e-07
5.2150867
-1.3980039e-06
5.2150867
1.3977816e-07
1.3926276e-06
5.4601076
-9.1797485e-08
5.4601076
-1.3896884e-06
5.4601076
8.7681683e-08
1.3850304e-06
5.7092745
-4.7041154e-08
5.7092744
-1.3448881e-06
5.7092745
4.3595552e-08
1.3409236e-06
5.9622114
-1.2625202e-08
5.9622113
-1.2599867e-06
5.9622113
9.7943251e-09
1.2566776e-06
6.2185231
9.9949712e-09
6.218523
-1.1328383e-06
6.218523
-1.2286198e-08
1.1301278e-06
6.4777967
2.063702e-08
6.4777965
-9.6409382e-07
6.4777965
-2.2483631e-08
9.6190399e-07
6.7396037
2.081252e-08
6.7396035
-7.5909212e-07
6.7396035
-2.2320389e-08
7.5732929e-07
7.0035023
1.3953167e-08
7.0035021
-5.3026743e-07
7.0035021
-1.5207824e-08
5.2884243e-07
7.2690395
5.1484617e-09
7.2690392
-2.9978827e-07
7.2690392
-6.1465285e-09
2.9866161e-07
7.5357533
-1.4530974e-10
7.5357531
-1.0272414e-07
7.5357531
-3.9663088e-10
1.0199331e-07
7.8031758
7.8031756
7.8031756
)
;

boundaryField
{
    movingWall
    {
        type            calculated;
        value           uniform 0;
    }
    CPLReceiveMD
    {
        type            calculated;
        value           uniform 0;
    }
    streamwiseIn
    {
        type            cyclic;
        value           nonuniform List<scalar> 
120
(
-0.33521915
-0.38297011
-0.30362369
-0.24006533
-0.20996363
-0.20187495
-0.20489567
-0.21364632
-0.22650643
-0.24342286
-0.26468611
-0.29048899
-0.32086407
-0.35574222
-0.39502187
-0.43861755
-0.48648599
-0.53863584
-0.59512694
-0.65606372
-0.72158605
-0.79185944
-0.86706596
-0.94739648
-1.0330444
-1.1242008
-1.2210505
-1.3237696
-1.4325232
-1.5474636
-1.6687289
-1.7964417
-1.9307081
-2.0716161
-2.2192346
-2.3736124
-2.5347766
-2.7027319
-2.8774591
-3.0589147
-3.2470294
-3.4417078
-3.642828
-3.8502406
-4.0637692
-4.28321
-4.5083323
-4.7388789
-4.9745664
-5.2150867
-5.4601076
-5.7092745
-5.9622114
-6.2185231
-6.4777967
-6.7396037
-7.0035023
-7.2690395
-7.5357533
-7.8031757
-0.33521911
-0.38296998
-0.30362366
-0.24006532
-0.20996368
-0.201875
-0.20489571
-0.21364633
-0.22650642
-0.24342285
-0.2646861
-0.29048899
-0.32086407
-0.35574222
-0.39502187
-0.43861754
-0.48648598
-0.53863583
-0.59512692
-0.65606371
-0.72158604
-0.79185942
-0.86706594
-0.94739647
-1.0330444
-1.1242008
-1.2210505
-1.3237696
-1.4325232
-1.5474636
-1.6687289
-1.7964417
-1.9307081
-2.0716161
-2.2192346
-2.3736124
-2.5347766
-2.7027319
-2.8774591
-3.0589147
-3.2470294
-3.4417078
-3.642828
-3.8502406
-4.0637692
-4.28321
-4.5083324
-4.7388789
-4.9745664
-5.2150867
-5.4601076
-5.7092745
-5.9622114
-6.2185231
-6.4777967
-6.7396037
-7.0035023
-7.2690395
-7.5357533
-7.8031758
)
;
    }
    streamwiseOut
    {
        type            cyclic;
        value           nonuniform List<scalar> 
120
(
0.33521915
0.38297011
0.30362369
0.24006533
0.20996363
0.20187495
0.20489567
0.21364632
0.22650643
0.24342286
0.26468611
0.29048899
0.32086407
0.35574222
0.39502187
0.43861755
0.48648599
0.53863584
0.59512694
0.65606372
0.72158605
0.79185944
0.86706596
0.94739648
1.0330444
1.1242008
1.2210505
1.3237696
1.4325232
1.5474636
1.6687289
1.7964417
1.9307081
2.0716161
2.2192346
2.3736124
2.5347766
2.7027319
2.8774591
3.0589147
3.2470294
3.4417078
3.642828
3.8502406
4.0637692
4.28321
4.5083323
4.7388789
4.9745664
5.2150867
5.4601076
5.7092745
5.9622114
6.2185231
6.4777967
6.7396037
7.0035023
7.2690395
7.5357533
7.8031757
0.33521911
0.38296998
0.30362366
0.24006532
0.20996368
0.201875
0.20489571
0.21364633
0.22650642
0.24342285
0.2646861
0.29048899
0.32086407
0.35574222
0.39502187
0.43861754
0.48648598
0.53863583
0.59512692
0.65606371
0.72158604
0.79185942
0.86706594
0.94739647
1.0330444
1.1242008
1.2210505
1.3237696
1.4325232
1.5474636
1.6687289
1.7964417
1.9307081
2.0716161
2.2192346
2.3736124
2.5347766
2.7027319
2.8774591
3.0589147
3.2470294
3.4417078
3.642828
3.8502406
4.0637692
4.28321
4.5083324
4.7388789
4.9745664
5.2150867
5.4601076
5.7092745
5.9622114
6.2185231
6.4777967
6.7396037
7.0035023
7.2690395
7.5357533
7.8031758
)
;
    }
    front
    {
        type            cyclic;
        value           nonuniform 0();
    }
    back
    {
        type            cyclic;
        value           nonuniform 0();
    }
    procBoundary0to1
    {
        type            processor;
        value           nonuniform List<scalar> 
240
(
-8.1247835e-09
-3.9909374e-09
6.3682229e-10
4.7450842e-09
-7.9820829e-09
-4.4446045e-09
-1.9215097e-09
1.3791469e-09
-9.6517794e-10
-1.4469068e-09
-2.9118978e-09
-4.9223147e-10
2.2534665e-09
3.3634954e-10
-2.4038648e-09
-1.0450428e-09
2.9628774e-09
9.2727755e-10
-1.6940237e-09
-9.3732414e-10
1.951281e-09
5.8290165e-10
-1.0362568e-09
-5.8731861e-10
8.369129e-10
-6.0345896e-11
-5.7418787e-10
-2.2684841e-10
6.6395122e-11
-6.0707433e-10
-3.6814029e-10
-2.0021312e-10
-3.2819671e-10
-9.3929305e-10
-3.1679246e-10
-2.2566652e-10
-4.6569996e-10
-1.0943294e-09
-3.2760423e-10
-2.9030812e-10
-4.6404258e-10
-1.1349289e-09
-3.4756836e-10
-3.7515482e-10
-4.0259206e-10
-1.1045782e-09
-3.5625752e-10
-4.4991123e-10
-3.2669347e-10
-1.0338976e-09
-3.5103978e-10
-5.004628e-10
-2.6044982e-10
-9.4273324e-10
-3.3769708e-10
-5.2309458e-10
-1.8230973e-10
-8.433788e-10
-3.185293e-10
-5.1973232e-10
-1.349492e-10
-7.4353753e-10
-2.9695402e-10
-4.9472026e-10
-1.0549727e-10
-6.481341e-10
-2.7663609e-10
-4.5319606e-10
-9.0570832e-11
-5.6010756e-10
-2.5843246e-10
-4.001048e-10
-8.6409803e-11
-4.8103563e-10
-2.4271661e-10
-3.3989421e-10
-8.9432956e-11
-4.1153831e-10
-2.2928557e-10
-2.7640304e-10
-9.649541e-11
-3.5156305e-10
-2.1671889e-10
-2.1281634e-10
-1.0503201e-10
-3.0076765e-10
-2.0599737e-10
-1.5171947e-10
-1.1305851e-10
-2.5849962e-10
-1.963427e-10
-9.5145106e-11
-1.1915589e-10
-2.2424775e-10
-1.874285e-10
-4.4641979e-11
-1.224033e-10
-1.9658094e-10
-1.7897271e-10
-1.1088168e-12
-1.2229393e-10
-1.7460164e-10
-1.7076449e-10
3.5470809e-11
-1.1865557e-10
-1.576812e-10
-1.6264612e-10
6.4359033e-11
-1.1157212e-10
-1.4519959e-10
-1.5450144e-10
8.5930039e-11
-1.0128552e-10
-1.3657347e-10
-1.4624471e-10
1.0051228e-10
-8.8102184e-11
-1.3126582e-10
-1.3781523e-10
1.0858125e-10
-7.2372923e-11
-1.2878965e-10
-1.2916061e-10
1.1071284e-10
-5.4461067e-11
-1.2870629e-10
-1.2023959e-10
1.0752669e-10
-3.4719798e-11
-1.3062033e-10
-1.1102209e-10
9.9652124e-11
-1.3480091e-11
-1.3417361e-10
-1.0148598e-10
8.7703448e-11
8.9539313e-12
-1.3904004e-10
-9.1615841e-11
7.2264009e-11
3.2305768e-11
-1.4492126e-10
-8.1403752e-11
5.3873975e-11
5.6324467e-11
-1.5154288e-10
-7.0850078e-11
3.297939e-11
8.0859434e-11
-1.5865243e-10
-5.9964371e-11
1.0168555e-11
1.0550681e-10
-1.6601741e-10
-4.8765023e-11
-1.421102e-11
1.3015023e-10
-1.7342456e-10
-3.7280456e-11
-3.9759875e-11
1.5456581e-10
-1.8068965e-10
-2.554996e-11
-6.6104037e-11
1.7852437e-10
-1.8763565e-10
-1.3623316e-11
-9.2886337e-11
2.0178741e-10
-1.9410734e-10
-1.5615484e-12
-1.1975901e-10
2.241046e-10
-1.9997134e-10
1.0562935e-11
-1.4637762e-10
2.4521324e-10
-2.0511786e-10
2.2665544e-11
-1.7239513e-10
2.6483968e-10
-2.0945426e-10
3.4648487e-11
-1.9745758e-10
2.8270474e-10
-2.1294094e-10
4.6399349e-11
-2.212012e-10
2.9853185e-10
-2.1553968e-10
5.7788466e-11
-2.4325196e-10
3.1206005e-10
-2.1724998e-10
6.8666329e-11
-2.6322648e-10
3.2306241e-10
-2.1808937e-10
7.8862121e-11
-2.8073824e-10
3.3136858e-10
-2.1807417e-10
8.8185684e-11
-2.9540779e-10
3.3688972e-10
-2.1718115e-10
9.6428564e-11
-3.0688179e-10
3.3963782e-10
-2.1528252e-10
1.0336285e-10
-3.1486359e-10
3.3972564e-10
-2.1203848e-10
1.0880153e-10
-3.1916081e-10
3.3733913e-10
-2.0672953e-10
1.1260901e-10
-3.1977121e-10
3.3269416e-10
-1.9801204e-10
1.1457142e-10
-3.1706115e-10
3.2591412e-10
-1.8369436e-10
1.1417407e-10
-3.1207786e-10
3.1699034e-10
-1.6066128e-10
1.0981341e-10
-3.0671476e-10
3.0536529e-10
-1.256696e-10
9.7977793e-11
-3.0267905e-10
2.5977863e-10
-6.4071534e-11
6.1000978e-11
-2.7306608e-10
)
;
    }
    procBoundary0to1throughfront
    {
        type            processorCyclic;
        value           nonuniform List<scalar> 
240
(
-1.937468e-08
-1.6707592e-08
-9.9384625e-09
-6.548737e-09
-3.8050181e-09
-2.0475369e-09
-9.004794e-10
-9.5030753e-11
2.9331444e-10
4.2909628e-10
4.303893e-10
3.7389747e-10
3.0224633e-10
2.3604084e-10
1.8217031e-10
1.4156302e-10
1.1411396e-10
9.879274e-11
9.3394845e-11
9.5006998e-11
1.0073968e-10
1.080911e-10
1.1512156e-10
1.2042271e-10
1.2305837e-10
1.2250485e-10
1.1855838e-10
1.1128108e-10
1.0088144e-10
8.7648258e-11
7.1912905e-11
5.4022529e-11
3.4318938e-11
1.3125015e-11
-9.2607762e-12
-3.2565729e-11
-5.6541147e-11
-8.1037985e-11
-1.0564984e-10
-1.302643e-10
-1.546558e-10
-1.7859454e-10
-2.0184154e-10
-2.2414587e-10
-2.4524432e-10
-2.6486291e-10
-2.8272191e-10
-2.985443e-10
-3.1206889e-10
-3.2306855e-10
-3.3137276e-10
-3.3689232e-10
-3.3963907e-10
-3.3972607e-10
-3.3733899e-10
-3.3269385e-10
-3.2591389e-10
-3.169903e-10
-3.0536638e-10
-2.5978087e-10
2.291288e-09
-1.8081133e-09
-4.6664185e-09
-5.6641867e-09
-5.574584e-09
-4.7609786e-09
-3.6881639e-09
-2.6591497e-09
-1.7742177e-09
-1.0547551e-09
-6.0021225e-10
-2.535205e-10
-1.0891477e-11
1.5051674e-10
2.5015477e-10
3.0433166e-10
3.2628871e-10
3.2649311e-10
3.1296368e-10
2.9161888e-10
2.666636e-10
2.4110751e-10
2.1687982e-10
1.9542187e-10
1.7678977e-10
1.6112515e-10
1.4858745e-10
1.3912503e-10
1.3256285e-10
1.2865463e-10
1.2711889e-10
1.2766122e-10
1.2998657e-10
1.3380625e-10
1.3884201e-10
1.4482811e-10
1.5151237e-10
1.5865741e-10
1.6604077e-10
1.7345591e-10
1.8072276e-10
1.8766705e-10
1.9413523e-10
1.9999498e-10
2.0513708e-10
2.0946983e-10
2.1295306e-10
2.1554893e-10
2.1725677e-10
2.180942e-10
2.180773e-10
2.1718288e-10
2.1528288e-10
2.12038e-10
2.0672836e-10
1.9801064e-10
1.8369325e-10
1.6066033e-10
1.2566899e-10
6.4070875e-11
-2.5089401e-09
-1.2267785e-09
8.1532642e-10
1.2680387e-09
1.0337655e-09
5.2885504e-10
1.2074122e-10
-7.115536e-11
-1.0212203e-10
-5.6667953e-11
8.8270245e-12
6.7568006e-11
1.1168983e-10
1.4412267e-10
1.6582598e-10
1.7930525e-10
1.8731082e-10
1.9138364e-10
1.9299995e-10
1.9218626e-10
1.8997788e-10
1.8654847e-10
1.8220486e-10
1.7714772e-10
1.7148397e-10
1.6529203e-10
1.5863008e-10
1.5154211e-10
1.4405707e-10
1.3618777e-10
1.2794149e-10
1.1932152e-10
1.1032744e-10
1.0095785e-10
9.1212576e-11
8.1094793e-11
7.0612881e-11
5.9782023e-11
4.8624838e-11
3.7173017e-11
2.5467954e-11
1.3561114e-11
1.5148009e-12
-1.0597516e-11
-2.2690581e-11
-3.4666258e-11
-4.6411584e-11
-5.7796495e-11
-6.8671156e-11
-7.8864663e-11
-8.8186624e-11
-9.6428227e-11
-1.0336185e-10
-1.0880007e-10
-1.1260718e-10
-1.1456934e-10
-1.141723e-10
-1.0981239e-10
-9.7977783e-11
-6.1001892e-11
-4.3121815e-09
-5.2232483e-09
-3.2910836e-09
-2.3459049e-09
-2.2957661e-09
-2.5788195e-09
-2.7387751e-09
-2.6171021e-09
-2.2517034e-09
-1.7201981e-09
-1.3057309e-09
-8.9861466e-10
-5.5892622e-10
-2.9478588e-10
-1.023608e-10
2.7758344e-11
1.0680357e-10
1.4591525e-10
1.5523046e-10
1.4350121e-10
1.18012e-10
8.4673044e-11
4.8136108e-11
1.1972255e-11
-2.1395844e-11
-5.0824753e-11
-7.4710639e-11
-9.2825102e-11
-1.0503467e-10
-1.1149391e-10
-1.1254329e-10
-1.0863845e-10
-1.0029409e-10
-8.8044242e-11
-7.2416748e-11
-5.3918521e-11
-3.2953836e-11
-1.010952e-11
1.4283975e-11
3.9835015e-11
6.6174828e-11
9.2949507e-11
1.1981344e-10
1.4642318e-10
1.7243238e-10
1.9748748e-10
2.2122496e-10
2.4327039e-10
2.6324071e-10
2.8074906e-10
2.954161e-10
3.0688802e-10
3.148681e-10
3.1916397e-10
3.1977373e-10
3.1706326e-10
3.1207987e-10
3.06717e-10
3.0268092e-10
2.7306701e-10
)
;
    }
}


// ************************************************************************* //
