/*--------------------------------*- C++ -*----------------------------------*\
| =========                 |                                                 |
| \\      /  F ield         | OpenFOAM: The Open Source CFD Toolbox           |
|  \\    /   O peration     | Version:  3.0.1                                 |
|   \\  /    A nd           | Web:      www.OpenFOAM.org                      |
|    \\/     M anipulation  |                                                 |
\*---------------------------------------------------------------------------*/
FoamFile
{
    version     2.0;
    format      ascii;
    class       surfaceScalarField;
    location    "100";
    object      phi;
}
// * * * * * * * * * * * * * * * * * * * * * * * * * * * * * * * * * * * * * //

dimensions      [0 3 -1 0 0 0 0];

internalField   nonuniform List<scalar> 
1072
(
-0.13233508
-8.4058415e-08
-3.237073e-09
-0.13233501
-3.7149175e-08
-7.3526186e-11
-0.13233508
9.1022704e-08
-1.1776886e-09
7.8115886e-08
2.2377875e-09
-0.18187754
-5.8024877e-08
-9.6851558e-09
-0.18187751
-5.8994159e-08
-2.0187863e-09
-0.18187754
7.755418e-08
-2.7389455e-09
1.0334821e-07
-1.0694324e-09
-0.14984819
1.2031115e-07
-8.4387247e-09
-0.14984832
7.704427e-08
-1.7052361e-09
-0.14984819
-8.5017062e-08
-4.2480501e-09
-2.3643016e-08
-2.3403383e-09
-0.10052201
4.6115466e-07
-6.3406369e-09
-0.1005223
3.883865e-07
-6.3104795e-10
-0.100522
-4.0823757e-07
-4.1839303e-09
-3.2850695e-07
-2.6374436e-09
-0.056429451
8.7065953e-07
-4.4434711e-09
-0.056429842
7.9239335e-07
5.9372213e-10
-0.056429452
-8.0199206e-07
-3.5880668e-09
-7.2663395e-07
-2.3383029e-09
-0.024386402
1.2062889e-06
-3.1111691e-09
-0.024386751
1.146754e-06
1.05051e-09
-0.024386417
-1.1271116e-06
-2.4931607e-09
-1.0761066e-06
-1.6952136e-09
-0.0042239248
1.3931629e-06
-2.3225529e-09
-0.0042241435
1.3642855e-06
1.1061221e-09
-0.0042239465
-1.3087593e-06
-2.0188927e-09
-1.2903117e-06
-9.4834962e-10
0.0067952575
1.4267278e-06
-1.8993628e-09
0.0067951883
1.427983e-06
1.1133002e-09
0.0067952368
-1.3422333e-06
-1.4656516e-09
-1.3528237e-06
-2.6386583e-10
0.011763463
1.3436749e-06
-1.6730404e-09
0.011763517
1.3674105e-06
1.0033488e-09
0.011763449
-1.2629231e-06
-1.0308111e-09
-1.2931965e-06
2.7607169e-10
0.01320624
1.1932316e-06
-1.5225875e-09
0.01320637
1.229927e-06
8.0275874e-10
0.013206233
-1.1185443e-06
-7.2060541e-10
-1.1583867e-06
6.4790643e-10
0.012864305
1.0191633e-06
-1.387555e-09
0.012864468
1.0605975e-06
6.3681624e-10
0.012864303
-9.5155471e-07
-5.1433281e-10
-9.9300175e-07
8.6540766e-10
0.011794677
8.5239881e-07
-1.2455645e-09
0.011794839
8.9300665e-07
5.1770488e-10
0.011794679
-7.9194582e-07
-3.8234132e-10
-8.3010356e-07
9.5837314e-10
0.010566839
7.106851e-07
-1.0939559e-09
0.01056698
7.4754682e-07
4.2642803e-10
0.010566843
-6.569051e-07
-2.9724506e-10
-6.896567e-07
9.6029106e-10
0.0094475836
6.015432e-07
-9.3872952e-10
0.0094476938
6.337801e-07
3.5672065e-10
0.0094475876
-5.5369396e-07
-2.3801949e-10
-5.8092468e-07
9.018826e-10
0.0085390066
5.2596007e-07
-7.8690585e-10
0.0085390834
5.5406078e-07
3.1509575e-10
0.0085390098
-4.8323713e-07
-1.9070377e-10
-5.0604617e-07
8.0821288e-10
0.0078681741
4.8153065e-07
-6.4586856e-10
0.0078682191
5.0680325e-07
2.3768462e-10
0.007868176
-4.4316619e-07
-1.4885351e-10
-4.6328305e-07
7.0069043e-10
0.0074393367
4.6464407e-07
-5.218689e-10
0.0074393528
4.8879787e-07
1.7965621e-10
0.0074393369
-4.2993328e-07
-1.0974331e-10
-4.4939061e-07
6.1152894e-10
0.0072613149
4.7173976e-07
-4.2593945e-10
0.0072613053
4.9671402e-07
1.3036184e-10
0.0072613133
-4.4004246e-07
-7.0972226e-11
-4.6093589e-07
4.8604136e-10
0.0073604313
4.9984272e-07
-3.3108034e-10
0.0073603986
5.278207e-07
8.8699443e-11
0.0073604276
-4.7062371e-07
-3.1809353e-11
-4.9517848e-07
3.7564177e-10
0.0077862081
5.4680148e-07
-2.5448057e-10
0.0077861542
5.8023573e-07
5.3923342e-11
0.007786202
-5.195637e-07
2.6486969e-12
-5.5023366e-07
2.8085045e-10
0.0086143047
6.1115798e-07
-1.9432355e-10
0.0086142306
6.5289383e-07
2.5445584e-11
0.0086142959
-5.8546249e-07
4.2744009e-11
-6.250445e-07
2.0171193e-10
0.0099491792
6.9194329e-07
-1.4881686e-10
0.0099490853
7.4538126e-07
2.7732805e-12
0.009949167
-6.6738948e-07
8.2118931e-11
-7.1921641e-07
1.3775959e-10
0.011927686
7.8843867e-07
-1.1642598e-10
0.011927572
8.5772124e-07
-1.4568992e-11
0.01192767
-7.6466477e-07
1.2083734e-10
-8.3280346e-07
8.8164475e-11
0.014724087
8.9994032e-07
-9.5857919e-11
0.014723953
9.901557e-07
-2.7085707e-11
0.014724066
-8.7662875e-07
1.5936369e-10
-9.6609011e-07
5.1873652e-11
0.018556559
1.0255438e-06
-8.6113569e-11
0.018556405
1.1429417e-06
-3.5317255e-11
0.018556531
-1.002428e-06
1.9816807e-10
-1.1193862e-06
2.7708379e-11
0.023695097
1.1639527e-06
-8.6293087e-11
0.023694922
1.316166e-06
-3.9825594e-11
0.023695061
-1.1408236e-06
2.37661e-10
-1.2928392e-06
1.4435412e-11
0.030470615
1.3133111e-06
-9.5432542e-11
0.03047042
1.5095755e-06
-4.1172331e-11
0.030470571
-1.290022e-06
2.781595e-10
-1.4862616e-06
1.0811974e-11
0.039285011
1.471063e-06
-1.1282296e-10
0.039284795
1.7224186e-06
-3.9896289e-11
0.039284955
-1.4475314e-06
3.1980567e-10
-1.6989689e-06
1.5608231e-11
0.050621878
1.6338388e-06
-1.3771638e-10
0.050621644
1.9532956e-06
-3.6491515e-11
0.050621809
-1.6100465e-06
3.6273137e-10
-1.9296272e-06
2.7610996e-11
0.065057546
1.7973792e-06
-1.6927392e-10
0.065057296
2.2000167e-06
-3.1389979e-11
0.065057462
-1.7733682e-06
4.0681738e-10
-2.1761082e-06
4.5614435e-11
0.083272002
1.9565025e-06
-2.0651679e-10
0.08327174
2.4594692e-06
-2.4948724e-11
0.083271901
-1.9323703e-06
4.5175751e-10
-2.435355e-06
6.8402158e-11
0.1060592
2.1051307e-06
-2.4828489e-10
0.10605893
2.7274999e-06
-1.7441673e-11
0.10605908
-2.0810229e-06
4.9704934e-10
-2.7032622e-06
9.4724245e-11
0.13433617
2.2363857e-06
-2.9320447e-10
0.13433589
2.9988188e-06
-9.0526952e-12
0.13433603
-2.2124876e-06
5.4199892e-10
-2.9745797e-06
1.2327568e-10
0.16915019
2.3427675e-06
-3.3966849e-10
0.16914992
3.2669347e-06
1.2846088e-13
0.16915002
-2.3192953e-06
5.8574985e-10
-3.242847e-06
1.5267693e-10
0.21168336
2.416426e-06
-3.8583221e-10
0.2116831
3.5241339e-06
1.0111374e-11
0.21168318
-2.3936167e-06
6.2713791e-10
-3.5003728e-06
1.8146071e-10
0.26325368
2.4495289e-06
-4.2962521e-10
0.26325344
3.7615172e-06
2.1008606e-11
0.26325347
-2.4276309e-06
6.6493004e-10
-3.7382717e-06
2.0806627e-10
0.32531174
2.4347246e-06
-4.6878271e-10
0.32531153
3.9691107e-06
3.3041769e-11
0.32531152
-2.413988e-06
6.9769219e-10
-3.9465759e-06
2.3084662e-10
0.39943244
2.3656874e-06
-5.0089878e-10
0.39943227
4.1360686e-06
4.6548e-11
0.3994322
-2.3463538e-06
7.2389106e-10
-4.1144375e-06
2.4808763e-10
0.48730069
2.2377195e-06
-5.2350158e-10
0.48730057
4.2509853e-06
6.1986113e-11
0.48730044
-2.2200126e-06
7.4195875e-10
-4.2304419e-06
2.5804043e-10
0.59069078
2.0483756e-06
-5.3415061e-10
0.59069072
4.3023335e-06
7.9941236e-11
0.59069053
-2.0324912e-06
7.5037652e-10
-4.283045e-06
2.5896754e-10
0.71143881
1.7980577e-06
-5.3055437e-10
0.71143883
4.2790417e-06
1.0112576e-10
0.71143858
-1.7841533e-06
7.4777477e-10
-4.2611515e-06
2.492024e-10
0.85140823
1.4905191e-06
-5.1070507e-10
0.85140833
4.171216e-06
1.2637386e-10
0.85140803
-1.4787046e-06
7.3304587e-10
-4.1548363e-06
2.2722147e-10
1.0124485
1.1332086e-06
-4.7302544e-10
1.0124487
3.971002e-06
1.5662588e-10
1.0124483
-1.1235371e-06
7.0546468e-10
-3.9562063e-06
1.9172685e-10
1.1963475
7.3738259e-07
-4.1652082e-10
1.1963478
3.6735644e-06
1.9289848e-10
1.1963474
-7.2984233e-07
6.6480914e-10
-3.660381e-06
1.4173699e-10
1.4047788
3.1791864e-07
-3.4092724e-10
1.4047792
3.278145e-06
2.3623635e-10
1.4047788
-3.1242697e-07
6.1147027e-10
-3.2665511e-06
7.6681507e-11
1.6392452
-1.0721957e-07
-2.4684137e-10
1.6392456
2.7891322e-06
2.8763809e-10
1.6392452
1.108182e-07
5.4654022e-10
-2.7790504e-06
-3.5043135e-12
1.9010191
-5.1788798e-07
-1.3582759e-10
1.9010196
2.2170536e-06
3.4796166e-10
1.9010192
5.1981889e-07
4.7186808e-10
-2.2083522e-06
-9.8290753e-11
2.1910844
-8.9302257e-07
-1.0493824e-11
2.191085
1.5793729e-06
4.1779081e-10
2.1910847
8.9357022e-07
3.9006728e-10
-1.5718713e-06
-2.0648014e-10
2.5100796
-1.2121909e-06
1.2549878e-10
2.5100803
9.009519e-07
4.9727104e-10
2.5100799
1.2116784e-06
3.0446255e-10
-8.9443372e-07
-3.2612827e-10
2.8582458
-1.4573162e-06
2.6747165e-10
2.8582465
2.1401455e-07
5.8591116e-10
2.8582463
1.4560732e-06
2.1896164e-10
-2.0824944e-07
-4.5453111e-10
3.2353829
-1.6144072e-06
4.0986325e-10
3.2353835
-4.4256655e-07
6.823571e-10
3.2353833
1.6127254e-06
1.3784311e-10
4.4779165e-07
-5.8819334e-10
3.6408147
-1.6750877e-06
5.4645692e-10
3.6408153
-1.024863e-06
7.8415434e-10
3.6408152
1.6731659e-06
6.5453502e-11
1.0297051e-06
-7.228278e-10
4.0733673
-1.6377123e-06
6.7074653e-10
4.0733678
-1.4865973e-06
8.8752407e-10
4.0733678
1.6355968e-06
5.8276754e-12
1.4911165e-06
-8.5342276e-10
4.531361
-1.5078931e-06
7.7647902e-10
4.5313613
-1.7832558e-06
9.8724648e-10
4.5313614
1.5054262e-06
-3.7702065e-11
1.7873844e-06
-9.7435862e-10
5.0126172
-1.29838e-06
8.5842908e-10
5.0126173
-1.8780255e-06
1.0766945e-09
5.0126175
1.295179e-06
-6.2750751e-11
1.8815671e-06
-1.079616e-09
5.5144825
-1.0284718e-06
9.1344956e-10
5.5144824
-1.7501855e-06
1.148467e-09
5.5144827
1.0239756e-06
-6.7833502e-11
1.7528762e-06
-1.1634561e-09
6.0338681
-7.2348061e-07
9.4176671e-10
6.0338677
-1.4067946e-06
1.1969617e-09
6.033868
7.1712681e-07
-5.2163581e-11
1.4084601e-06
-1.2229913e-09
6.5673044
-4.1514108e-07
9.4772837e-10
6.5673039
-8.9833548e-07
1.2233247e-09
6.5673042
4.0675831e-07
-1.261638e-11
8.9919541e-07
-1.2628445e-09
7.1110103
-1.4634031e-07
9.3969029e-10
7.1110097
-3.4400468e-07
1.2359496e-09
7.11101
1.3691279e-07
6.6807459e-11
3.4521865e-07
-1.2955016e-09
7.6609731
8.2192259e-10
7.6609727
1.0898371e-09
7.6609729
2.4332774e-10
-1.1707161e-09
-0.13233506
-4.7104127e-08
-0.13233499
-1.0220696e-08
-0.13233506
5.6851496e-08
4.4431447e-08
-0.18187748
-3.7317921e-08
-0.18187746
-1.7562325e-08
-0.18187746
5.2380499e-08
6.4270687e-08
-0.14984814
1.1600116e-07
-0.14984827
1.0759926e-07
-0.14984812
-9.5499798e-08
-5.0076076e-08
-0.10052197
4.4260614e-07
-0.10052227
4.0651525e-07
-0.10052196
-4.1253541e-07
-3.4287101e-07
-0.056429446
8.4296256e-07
-0.056429844
7.9921163e-07
-0.056429446
-8.020857e-07
-7.3034051e-07
-0.024386435
1.1745981e-06
-0.024386786
1.1444203e-06
-0.02438645
-1.1241377e-06
-1.0721453e-06
-0.004223978
1.3618644e-06
-0.0042241958
1.3558425e-06
-0.0042240009
-1.3050473e-06
-1.2822203e-06
0.0067952018
1.3987991e-06
0.0067951349
1.4167096e-06
0.0067951804
-1.3388984e-06
-1.3435813e-06
0.011763416
1.3206113e-06
0.011763472
1.3558452e-06
0.011763401
-1.2603849e-06
-1.2847697e-06
0.013206206
1.1753709e-06
0.013206337
1.2196022e-06
0.013206198
-1.1167712e-06
-1.1517346e-06
0.012864283
1.0061038e-06
0.012864446
1.0523224e-06
0.012864281
-9.5029918e-07
-9.8831998e-07
0.011794664
8.4336713e-07
0.011794826
8.8702306e-07
0.011794667
-7.9091154e-07
-8.2712319e-07
0.010566832
7.0480633e-07
0.010566973
7.4374249e-07
0.010566836
-6.5584217e-07
-6.8790296e-07
0.0094475804
5.9800482e-07
0.0094476901
6.3188858e-07
0.0094475848
-5.5243337e-07
-5.798983e-07
0.0085390052
5.240898e-07
0.0085390815
5.5378007e-07
0.0085390087
-4.8168791e-07
-5.0532401e-07
0.0078681734
4.8080766e-07
0.0078682178
5.0778285e-07
0.0078681755
-4.4130197e-07
-4.6254992e-07
0.0074393359
4.6466424e-07
0.0074393514
4.907635e-07
0.0074393363
-4.2777183e-07
-4.4837391e-07
0.0072613137
4.7216814e-07
0.0072613036
4.9945595e-07
0.0072613121
-4.3762515e-07
-4.5958043e-07
0.0073604294
5.0050227e-07
0.0073603962
5.3118924e-07
0.0073604255
-4.6799772e-07
-4.9348114e-07
0.0077862054
5.4756565e-07
0.0077861511
5.8412797e-07
0.007786199
-5.168013e-07
-5.4823059e-07
0.0086143011
6.1193584e-07
0.0086142266
6.5724235e-07
0.0086142918
-5.8259462e-07
-6.2279579e-07
0.0099491744
6.9266837e-07
0.0099490802
7.501431e-07
0.0099491617
-6.6444151e-07
-7.167954e-07
0.01192768
7.890612e-07
0.011927566
8.6286946e-07
0.011927663
-7.6165695e-07
-8.3028921e-07
0.01472408
9.004224e-07
0.014723945
9.9567321e-07
0.014724057
-8.735765e-07
-9.6356263e-07
0.01855655
1.0258566e-06
0.018556395
1.1488168e-06
0.018556521
-9.9934255e-07
-1.1169238e-06
0.023695085
1.164075e-06
0.02369491
1.3223888e-06
0.023695048
-1.1377125e-06
-1.2905173e-06
0.030470602
1.3132297e-06
0.030470406
1.5161353e-06
0.030470555
-1.2868902e-06
-1.4841525e-06
0.039284994
1.4707727e-06
0.039284779
1.7293015e-06
0.039284936
-1.4443816e-06
-1.6971421e-06
0.050621858
1.6333434e-06
0.050621625
1.9604823e-06
0.050621787
-1.6068796e-06
-1.9281492e-06
0.065057523
1.7966921e-06
0.065057274
2.2074803e-06
0.065057436
-1.7701843e-06
-2.1750427e-06
0.083271975
1.9556482e-06
0.083271713
2.4671737e-06
0.083271871
-1.9291691e-06
-2.4347622e-06
0.10605917
2.1041455e-06
0.1060589
2.7353985e-06
0.10605905
-2.0778048e-06
-2.703198e-06
0.13433613
2.2353191e-06
0.13433586
3.0068529e-06
0.13433599
-2.2092547e-06
-2.975094e-06
0.16915015
2.3416831e-06
0.16914988
3.2750327e-06
0.16914998
-2.3160525e-06
-3.2439813e-06
0.21168332
2.4154024e-06
0.21168306
3.532211e-06
0.21168313
-2.390374e-06
-3.5021573e-06
0.26325363
2.4486604e-06
0.26325339
3.7694758e-06
0.26325342
-2.4244048e-06
-3.7407221e-06
0.32531169
2.4341215e-06
0.32531148
3.9768413e-06
0.32531146
-2.4108034e-06
-3.9496891e-06
0.39943238
2.3654751e-06
0.39943221
4.1434511e-06
0.39943214
-2.3432457e-06
-4.118188e-06
0.48730063
2.2380378e-06
0.48730051
4.2578916e-06
0.48730038
-2.2170275e-06
-4.2347775e-06
0.59069071
2.0493761e-06
0.59069066
4.3086309e-06
0.59069047
-2.029688e-06
-4.2878837e-06
0.71143875
1.7998996e-06
0.71143877
4.2845967e-06
0.71143852
-1.7816035e-06
-4.2663791e-06
0.85140817
1.4933638e-06
0.85140827
4.1758999e-06
0.85140796
-1.4764907e-06
-4.1603058e-06
1.0124484
1.1372119e-06
1.0124486
3.9746967e-06
1.0124482
-1.1217495e-06
-3.9617396e-06
1.1963474
7.4268425e-07
1.1963477
3.6761701e-06
1.1963473
-7.285742e-07
-3.6657733e-06
1.4047788
3.2462988e-07
1.4047792
3.2795874e-06
1.4047788
-3.1176722e-07
-3.2715791e-06
1.6392451
-9.9030936e-08
1.6392456
2.7893718e-06
1.6392452
1.1079467e-07
-2.7834842e-06
1.901019
-5.0821405e-07
1.9010196
2.2160939e-06
1.9010192
5.1906255e-07
-2.2119712e-06
2.1910844
-8.819328e-07
2.191085
1.577269e-06
2.1910846
8.920699e-07
-1.5744842e-06
2.5100796
-1.1998483e-06
2.5100802
8.9781745e-07
2.5100799
1.2094742e-06
-8.9590132e-07
2.8582458
-1.4439906e-06
2.8582465
2.1002717e-07
2.8582463
1.4532684e-06
-2.0850988e-07
3.2353829
-1.6004811e-06
3.2353835
-4.4716319e-07
3.2353834
1.6094942e-06
4.4869756e-07
3.6408147
-1.6610522e-06
3.6408153
-1.0297608e-06
3.6408152
1.6697557e-06
1.0316116e-06
4.0733674
-1.6241462e-06
4.0733678
-1.4914308e-06
4.0733679
1.6323217e-06
1.4937179e-06
4.531361
-1.4954212e-06
4.5313613
-1.7876191e-06
4.5313615
1.5026518e-06
1.7902364e-06
5.0126173
-1.2876065e-06
5.0126174
-1.8815088e-06
5.0126176
1.2933026e-06
1.8841202e-06
5.5144826
-1.0198921e-06
5.5144825
-1.752458e-06
5.5144827
1.0234198e-06
1.7545737e-06
6.0338681
-7.1739296e-07
6.0338678
-1.4077886e-06
6.0338681
7.1838136e-07
1.4089682e-06
6.5673044
-4.1161641e-07
6.5673039
-8.9868379e-07
6.5673042
4.1058081e-07
8.9894587e-07
7.1110103
-1.4524936e-07
7.1110098
-3.4530103e-07
7.11101
1.4445973e-07
3.4581318e-07
7.6609731
7.6609727
7.6609729
)
;

boundaryField
{
    movingWall
    {
        type            calculated;
        value           uniform 0;
    }
    CPLReceiveMD
    {
        type            calculated;
        value           uniform 0;
    }
    streamwiseIn
    {
        type            cyclic;
        value           nonuniform List<scalar> 
120
(
0.13233514
0.18187756
0.14984806
0.10052171
0.056429068
0.024386075
0.0042237344
-0.0067953007
-0.011763392
-0.013206101
-0.01286414
-0.011794517
-0.010566702
-0.0094474783
-0.008538934
-0.0078681321
-0.0074393219
-0.0072613238
-0.007360461
-0.0077862566
-0.0086143705
-0.0099492614
-0.011927784
-0.0147242
-0.018556686
-0.023695237
-0.030470766
-0.03928517
-0.050622043
-0.065057712
-0.083272164
-0.10605935
-0.1343363
-0.1691503
-0.21168344
-0.26325372
-0.32531173
-0.39943237
-0.48730057
-0.59069059
-0.71143857
-0.85140793
-1.0124481
-1.1963471
-1.4047784
-1.6392447
-1.9010187
-2.191084
-2.5100793
-2.8582456
-3.2353827
-3.6408146
-4.0733674
-4.5313611
-5.0126174
-5.5144828
-6.0338684
-6.5673047
-7.1110106
-7.6609732
0.13233511
0.18187746
0.14984797
0.10052164
0.056429044
0.024386098
0.0042237838
-0.0067952457
-0.011763344
-0.013206065
-0.012864116
-0.011794503
-0.010566695
-0.0094474745
-0.0085389321
-0.0078681309
-0.0074393206
-0.0072613221
-0.0073604586
-0.0077862532
-0.0086143661
-0.0099492557
-0.011927777
-0.014724191
-0.018556675
-0.023695223
-0.03047075
-0.039285151
-0.05062202
-0.065057685
-0.083272133
-0.10605932
-0.13433626
-0.16915025
-0.21168339
-0.26325366
-0.32531167
-0.39943231
-0.4873005
-0.59069052
-0.71143849
-0.85140785
-1.012448
-1.196347
-1.4047784
-1.6392447
-1.9010186
-2.191084
-2.5100793
-2.8582456
-3.2353827
-3.6408146
-4.0733674
-4.5313612
-5.0126175
-5.5144829
-6.0338684
-6.5673048
-7.1110106
-7.6609732
)
;
    }
    streamwiseOut
    {
        type            cyclic;
        value           nonuniform List<scalar> 
120
(
-0.13233514
-0.18187756
-0.14984806
-0.10052171
-0.056429068
-0.024386075
-0.0042237344
0.0067953007
0.011763392
0.013206101
0.01286414
0.011794517
0.010566702
0.0094474783
0.008538934
0.0078681321
0.0074393219
0.0072613238
0.007360461
0.0077862566
0.0086143705
0.0099492614
0.011927784
0.0147242
0.018556686
0.023695237
0.030470766
0.03928517
0.050622043
0.065057712
0.083272164
0.10605935
0.1343363
0.1691503
0.21168344
0.26325372
0.32531173
0.39943237
0.48730057
0.59069059
0.71143857
0.85140793
1.0124481
1.1963471
1.4047784
1.6392447
1.9010187
2.191084
2.5100793
2.8582456
3.2353827
3.6408146
4.0733674
4.5313611
5.0126174
5.5144828
6.0338684
6.5673047
7.1110106
7.6609732
-0.13233511
-0.18187746
-0.14984797
-0.10052164
-0.056429044
-0.024386098
-0.0042237838
0.0067952457
0.011763344
0.013206065
0.012864116
0.011794503
0.010566695
0.0094474745
0.0085389321
0.0078681309
0.0074393206
0.0072613221
0.0073604586
0.0077862532
0.0086143661
0.0099492557
0.011927777
0.014724191
0.018556675
0.023695223
0.03047075
0.039285151
0.05062202
0.065057685
0.083272133
0.10605932
0.13433626
0.16915025
0.21168339
0.26325366
0.32531167
0.39943231
0.4873005
0.59069052
0.71143849
0.85140785
1.012448
1.196347
1.4047784
1.6392447
1.9010186
2.191084
2.5100793
2.8582456
3.2353827
3.6408146
4.0733674
4.5313612
5.0126175
5.5144829
6.0338684
6.5673048
7.1110106
7.6609732
)
;
    }
    front
    {
        type            cyclic;
        value           nonuniform 0();
    }
    back
    {
        type            cyclic;
        value           nonuniform 0();
    }
    procBoundary1to0
    {
        type            processor;
        value           nonuniform List<scalar> 
240
(
-4.2032963e-09
1.1502112e-09
-6.7152762e-10
4.129826e-09
-1.0687134e-08
-2.4382583e-10
-2.1442107e-09
2.0351378e-09
-9.2542096e-09
-1.5427839e-10
-3.673517e-09
5.8785222e-10
-6.9230681e-09
1.0324307e-09
-3.6845144e-09
-2.6730429e-11
-4.8156142e-09
1.3142049e-09
-3.1278943e-09
-1.2352445e-10
-3.3238364e-09
1.5109462e-09
-2.237833e-09
1.0332981e-10
-2.4284863e-09
1.5214162e-09
-1.7888293e-09
4.6001641e-10
-1.940678e-09
1.4026354e-09
-1.2828912e-09
8.0434424e-10
-1.6788983e-09
1.2203763e-09
-8.8961781e-10
1.0634504e-09
-1.5110201e-09
1.0216679e-09
-6.1426501e-10
1.2133283e-09
-1.3687309e-09
8.6137127e-10
-4.35684e-10
1.2615153e-09
-1.2245118e-09
6.9100291e-10
-3.2469871e-10
1.2292985e-09
-1.0730503e-09
5.4267411e-10
-2.5499449e-10
1.1411778e-09
-9.188801e-10
4.3315799e-10
-2.0672069e-10
1.0195061e-09
-7.683627e-10
3.2353828e-10
-1.6711382e-10
8.822341e-10
-6.2880347e-10
2.4722616e-10
-1.3077749e-10
7.45613e-10
-5.1785493e-10
1.84392e-10
-9.5547576e-11
6.2502384e-10
-4.2766634e-10
1.3244999e-10
-5.9648864e-11
4.929771e-10
-3.3367349e-10
8.9474135e-11
-2.2663224e-11
3.7881776e-10
-2.5643688e-10
5.4162562e-11
4.4279839e-12
2.8200487e-10
-1.9550258e-10
2.5551331e-11
4.2616579e-11
2.0187856e-10
-1.4936102e-10
2.9254355e-12
8.1685277e-11
1.3751742e-10
-1.1652318e-10
-1.4316688e-11
1.2045289e-10
8.7811256e-11
-9.5674507e-11
-2.6742391e-11
1.5910207e-10
5.1544873e-11
-8.5700087e-11
-3.4916387e-11
1.9802084e-10
2.7451676e-11
-8.5660373e-11
-3.9404384e-11
2.3759805e-10
1.4255138e-11
-9.4738137e-11
-4.0761966e-11
2.7815008e-10
1.0694516e-11
-1.1215743e-10
-3.9519021e-11
3.1988038e-10
1.5535341e-11
-1.3712609e-10
-3.6160236e-11
3.6284472e-10
2.7566023e-11
-1.6877727e-10
-3.1110209e-11
4.0693612e-10
4.5584615e-11
-2.0611539e-10
-2.472039e-11
4.5186423e-10
6.8378863e-11
-2.4797116e-10
-1.726103e-11
4.9713707e-10
9.4702359e-11
-2.9296652e-10
-8.9139949e-12
5.4207215e-10
1.2325271e-10
-3.3949313e-10
2.3180672e-13
5.8600035e-10
1.5265211e-10
-3.8570676e-10
1.0185946e-11
6.2731974e-10
1.8143428e-10
-4.2953838e-10
2.1060473e-11
6.6506073e-10
2.0803897e-10
-4.6872494e-10
3.3076249e-11
6.9778508e-10
2.3081933e-10
-5.008623e-10
4.6569546e-11
7.2395625e-10
2.4806119e-10
-5.2348027e-10
6.1998341e-11
7.4200385e-10
2.580155e-10
-5.3413977e-10
7.9946974e-11
7.5040718e-10
2.5894456e-10
-5.3055053e-10
1.0112718e-10
7.4779516e-10
2.4918288e-10
-5.1070569e-10
1.2637256e-10
7.3305905e-10
2.27205e-10
-4.7302867e-10
1.5662298e-10
7.0547277e-10
1.9171303e-10
-4.165254e-10
1.9289474e-10
6.6481362e-10
1.4172549e-10
-3.409318e-10
2.3623229e-10
6.1147225e-10
7.6672046e-11
-2.4684547e-10
2.8763404e-10
5.4654059e-10
-3.5120068e-12
-1.3583114e-10
3.4795806e-10
4.7186751e-10
-9.8296927e-11
-1.0496895e-11
4.1778785e-10
3.9006626e-10
-2.0648251e-10
1.254993e-10
4.9726874e-10
3.0446139e-10
-3.2613026e-10
2.6747156e-10
5.8590943e-10
2.1896048e-10
-4.5453287e-10
4.098628e-10
6.8235592e-10
1.378419e-10
-5.8819495e-10
5.4645622e-10
7.8415346e-10
6.5452337e-11
-7.2282908e-10
6.7074558e-10
8.875232e-10
5.8266678e-12
-8.5342365e-10
7.7647783e-10
9.8724533e-10
-3.7702687e-11
-9.7435914e-10
8.5842774e-10
1.0766934e-09
-6.2751007e-11
-1.0796164e-09
9.1344841e-10
1.148466e-09
-6.7833729e-11
-1.1634563e-09
9.4176568e-10
1.1969608e-09
-5.2163653e-11
-1.2229915e-09
9.4772729e-10
1.2233241e-09
-1.2616031e-11
-1.2628449e-09
9.3968935e-10
1.2359491e-09
6.6807866e-11
-1.2955023e-09
8.2192221e-10
1.0898367e-09
2.4332773e-10
-1.1707169e-09
)
;
    }
    procBoundary1to0throughback
    {
        type            processorCyclic;
        value           nonuniform List<scalar> 
240
(
-9.0447083e-09
-1.5015238e-08
-1.4786681e-08
-1.3131031e-08
-1.0273408e-08
-7.3498104e-09
-4.9079075e-09
-3.0543102e-09
-1.7222738e-09
-8.1972744e-10
-2.4329511e-10
9.898345e-11
2.8080585e-10
3.5809814e-10
3.7066428e-10
3.4720383e-10
3.1205735e-10
2.8424628e-10
2.2900143e-10
1.8122917e-10
1.4173608e-10
1.1100504e-10
8.9180664e-11
7.6178291e-11
7.1783718e-11
7.5708635e-11
8.7603219e-11
1.0702547e-10
1.3342058e-10
1.6609002e-10
2.0415748e-10
2.4653762e-10
2.9191176e-10
3.3871338e-10
3.8512777e-10
4.2910672e-10
4.6840199e-10
5.0061994e-10
5.2329791e-10
5.340023e-10
5.3044673e-10
5.1062719e-10
4.729693e-10
4.1648052e-10
3.4089788e-10
2.468199e-10
1.3581193e-10
1.0482426e-11
-1.2551019e-10
-2.6747975e-10
-4.0986902e-10
-5.4646085e-10
-6.7074918e-10
-7.7648076e-10
-8.5843018e-10
-9.134502e-10
-9.4176689e-10
-9.4772832e-10
-9.3969006e-10
-8.2192202e-10
3.4407873e-09
3.5047722e-10
-1.647908e-09
-2.6080086e-09
-3.7432751e-09
-3.770113e-09
-3.4462775e-09
-3.0014352e-09
-2.5282872e-09
-2.0874166e-09
-1.6985964e-09
-1.3726003e-09
-1.1010714e-09
-8.7705229e-10
-6.9524602e-10
-5.4415193e-10
-4.1850609e-10
-3.1468562e-10
-2.2975228e-10
-1.6112709e-10
-1.064677e-10
-6.3730843e-11
-3.1119837e-11
-7.0482236e-12
9.8876882e-12
2.0927858e-11
2.7161082e-11
2.9529333e-11
2.8836669e-11
2.5748265e-11
2.0798181e-11
1.4393639e-11
6.8183304e-12
-1.7633965e-12
-1.1305504e-11
-2.1879144e-11
-3.3675194e-11
-4.7007991e-11
-6.2319473e-11
-8.0182326e-11
-1.0129975e-10
-1.2649915e-10
-1.5671589e-10
-1.9296301e-10
-2.3628251e-10
-2.8767101e-10
-3.4798507e-10
-4.1780744e-10
-4.9728274e-10
-5.8591933e-10
-6.8236268e-10
-7.8415816e-10
-8.8752656e-10
-9.8724791e-10
-1.0766951e-09
-1.1484672e-09
-1.1969616e-09
-1.2233245e-09
-1.2359496e-09
-1.0898372e-09
-4.7168597e-10
-1.4684801e-09
-9.4528786e-10
-6.8680857e-10
-6.044703e-10
-5.8331772e-10
-5.9528985e-10
-5.9505202e-10
-5.6571808e-10
-5.0424816e-10
-4.2026915e-10
-3.2846857e-10
-2.421211e-10
-1.7049984e-10
-1.1801853e-10
-8.4337985e-11
-6.5626849e-11
-6.0335015e-11
-6.5223752e-11
-6.8845564e-11
-9.2435404e-11
-1.1894342e-10
-1.4806742e-10
-1.7948711e-10
-2.1303954e-10
-2.486542e-10
-2.8628914e-10
-3.2587562e-10
-3.6726564e-10
-4.1020079e-10
-4.5427902e-10
-4.9892581e-10
-5.4339311e-10
-5.8698853e-10
-6.2805795e-10
-6.6561207e-10
-6.9819734e-10
-7.2426488e-10
-7.4223512e-10
-7.5058062e-10
-7.479253e-10
-7.3315671e-10
-7.0554609e-10
-6.6486869e-10
-6.1151361e-10
-5.4657171e-10
-4.7189095e-10
-3.9008388e-10
-3.0447457e-10
-2.1897038e-10
-1.3784939e-10
-6.5458051e-11
-5.8308546e-12
3.7699795e-11
6.2749014e-11
6.7831884e-11
5.216197e-11
1.2614787e-11
-6.6808971e-11
-2.4332887e-10
2.7548693e-09
8.7325351e-10
-1.4371412e-10
-6.6370063e-10
-9.7491827e-10
-1.2715321e-09
-1.5675208e-09
-1.809984e-09
-1.9587432e-09
-2.0000061e-09
-1.9439174e-09
-1.813062e-09
-1.6331529e-09
-1.4275751e-09
-1.214825e-09
-1.0076042e-09
-8.3717769e-10
-6.633674e-10
-5.122864e-10
-3.8528941e-10
-2.8107122e-10
-1.9777377e-10
-1.3336471e-10
-8.579527e-11
-5.3084566e-11
-3.336404e-11
-2.4893726e-11
-2.6058283e-11
-3.5347873e-11
-5.1329802e-11
-7.2615124e-11
-9.7823242e-11
-1.2555053e-10
-1.5434337e-10
-1.8267893e-10
-2.0895499e-10
-2.3149361e-10
-2.4855766e-10
-2.5838124e-10
-2.5921418e-10
-2.4938061e-10
-2.2735053e-10
-1.9182024e-10
-1.4180444e-10
-7.6730133e-11
3.4692838e-12
9.8265499e-11
2.0645941e-10
3.2611307e-10
4.5452e-10
5.8818521e-10
7.2282185e-10
8.5341827e-10
9.7435514e-10
1.0796131e-09
1.1634539e-09
1.2229893e-09
1.2628424e-09
1.2954999e-09
1.1707153e-09
)
;
    }
}


// ************************************************************************* //
