/*--------------------------------*- C++ -*----------------------------------*\
| =========                 |                                                 |
| \\      /  F ield         | OpenFOAM: The Open Source CFD Toolbox           |
|  \\    /   O peration     | Version:  3.0.1                                 |
|   \\  /    A nd           | Web:      www.OpenFOAM.org                      |
|    \\/     M anipulation  |                                                 |
\*---------------------------------------------------------------------------*/
FoamFile
{
    version     2.0;
    format      ascii;
    class       surfaceScalarField;
    location    "175";
    object      phi;
}
// * * * * * * * * * * * * * * * * * * * * * * * * * * * * * * * * * * * * * //

dimensions      [0 3 -1 0 0 0 0];

internalField   nonuniform List<scalar> 
1072
(
-0.15096891
1.2914941e-07
-5.221133e-09
-0.15096884
-7.6080389e-08
-1.2824243e-10
-0.1509689
6.8310977e-08
-2.660897e-09
7.4924428e-08
-2.3315602e-09
-0.19604446
-6.9522604e-08
-4.4441861e-11
-0.19604427
-2.6822041e-07
2.3327089e-10
-0.19604447
2.8382603e-07
-3.9333361e-10
2.6387134e-07
-8.3262148e-11
-0.21377639
-2.3633337e-07
1.0543624e-09
-0.21377625
-4.0683523e-07
-5.0380134e-10
-0.2137764
4.4246796e-07
8.2404526e-10
4.1419166e-07
2.1253107e-09
-0.20507937
-3.2379407e-07
3.0271309e-09
-0.20507929
-4.6674439e-07
3.1669096e-11
-0.20507937
5.0532826e-07
8.1378699e-10
4.8602399e-07
2.8844806e-09
-0.18557702
-2.8108133e-07
3.5096704e-09
-0.18557707
-4.0402091e-07
4.5121278e-10
-0.18557702
4.3717686e-07
5.9789832e-10
4.3382616e-07
2.9965666e-09
-0.16359014
-1.644739e-07
2.9344579e-09
-0.16359027
-2.6733597e-07
9.4338217e-10
-0.16359015
2.9997284e-07
3.2223329e-10
3.0707037e-07
2.7776522e-09
-0.14265716
-3.8692426e-08
2.1099069e-09
-0.1426573
-1.1903827e-07
1.3566044e-09
-0.14265717
1.5852068e-07
1.8311406e-10
1.6816069e-07
2.5258412e-09
-0.12367217
6.3753814e-08
1.2772508e-09
-0.12367228
5.7275606e-09
1.6239918e-09
-0.12367218
4.4076447e-08
1.0316056e-10
5.1723618e-08
2.3409988e-09
-0.10634117
1.3962467e-07
6.4349415e-10
-0.10634126
1.0081693e-07
1.7461799e-09
-0.10634118
-4.1412134e-08
5.7994282e-11
-3.6649703e-08
2.220159e-09
-0.090107894
2.0122194e-07
2.5703444e-10
-0.090107967
1.7723512e-07
1.7460904e-09
-0.090107901
-1.1120445e-07
3.6392913e-11
-1.0828401e-07
2.1273162e-09
-0.074578416
2.6327071e-07
8.3636292e-11
-0.074578487
2.4997282e-07
1.6569662e-09
-0.074578421
-1.803901e-07
2.9128246e-11
-1.781798e-07
2.029651e-09
-0.059591905
3.3491854e-07
-8.933922e-11
-0.059591983
3.2957978e-07
1.5111859e-09
-0.059591908
-2.5824969e-07
3.0001162e-11
-2.5669019e-07
1.9082433e-09
-0.045128439
4.179711e-07
-2.3105424e-10
-0.045128529
4.1967807e-07
1.3351381e-09
-0.045128443
-3.4675869e-07
3.7118345e-11
-3.471532e-07
1.7582002e-09
-0.031192056
5.0907782e-07
-3.0455563e-10
-0.031192155
5.1847477e-07
1.1483134e-09
-0.031192063
-4.4275388e-07
5.0119134e-11
-4.4748097e-07
1.5838166e-09
-0.017731113
6.0288323e-07
-3.2701697e-10
-0.017731218
6.2165254e-07
9.6408162e-10
-0.017731122
-5.4104022e-07
6.8399189e-11
-5.530872e-07
1.3937415e-09
-0.0046052066
6.9445421e-07
-3.4157892e-10
-0.0046053113
7.2484443e-07
7.9118404e-10
-0.0046052181
-6.3678609e-07
9.0601551e-11
-6.5937428e-07
1.197471e-09
0.0084150471
7.8041695e-07
-3.0112939e-10
0.0084149449
8.2501439e-07
6.3511727e-10
0.0084150325
-7.2671433e-07
1.1523967e-10
-7.6311701e-07
1.0033396e-09
0.02163251
8.591056e-07
-2.1878103e-10
0.021632412
9.208253e-07
4.9813762e-10
0.021632492
-8.0928856e-07
1.4073436e-10
-8.6282412e-07
8.1780647e-10
0.035404801
9.3033533e-07
-1.5012655e-10
0.035404706
1.0123689e-06
3.8063027e-10
0.035404779
-8.8432106e-07
1.6501422e-10
-9.5845403e-07
6.4543751e-10
0.050128945
9.9470717e-07
-9.3636364e-11
0.050128853
1.1006235e-06
2.818017e-10
0.05012892
-9.5238845e-07
1.8802337e-10
-1.0508715e-06
4.8845931e-10
0.066231601
1.0530357e-06
-4.5203002e-11
0.066231511
1.1869041e-06
2.0006824e-10
0.066231572
-1.014286e-06
2.1029148e-10
-1.1412939e-06
3.454623e-10
0.084164538
1.1059555e-06
-3.5693147e-12
0.084164449
1.2724327e-06
1.3349044e-10
0.084164504
-1.0706323e-06
2.3407938e-10
-1.2308564e-06
2.150734e-10
0.10440401
1.1536872e-06
3.1312104e-11
0.10440392
1.3580622e-06
8.0353466e-11
0.10440397
-1.1216301e-06
2.5709767e-10
-1.3203952e-06
1.1945604e-10
0.1274525
1.195947e-06
5.9319615e-11
0.12745241
1.4441366e-06
3.8732435e-11
0.12745245
-1.1669772e-06
2.7954104e-10
-1.4102074e-06
3.8089163e-11
0.15384144
1.2319522e-06
8.0507159e-11
0.15384135
1.5304491e-06
6.8966364e-12
0.15384139
-1.2058743e-06
3.012567e-10
-1.5000559e-06
-2.9644262e-11
0.18413412
1.2604895e-06
9.5153938e-11
0.18413403
1.6162596e-06
-1.666351e-11
0.18413406
-1.2370951e-06
3.2204105e-10
-1.5891817e-06
-8.4834096e-11
0.21892788
1.2800164e-06
1.0372188e-10
0.2189278
1.7003425e-06
-3.3297262e-11
0.21892782
-1.259088e-06
3.4165632e-10
-1.6763493e-06
-1.2868974e-10
0.25885553
1.2887773e-06
1.0678317e-10
0.25885545
1.7810447e-06
-4.4123216e-11
0.25885546
-1.2700928e-06
3.5982477e-10
-1.7599026e-06
-1.6241951e-10
0.30458547
1.2849239e-06
1.0495576e-10
0.30458539
1.856342e-06
-5.000125e-11
0.30458539
-1.2682613e-06
3.7623123e-10
-1.8378205e-06
-1.8717165e-10
0.35682067
1.2666359e-06
9.8859225e-11
0.3568206
1.9238942e-06
-5.1475515e-11
0.35682059
-1.2517772e-06
3.9052584e-10
-1.9077699e-06
-2.0400165e-10
0.41629629
1.2322411e-06
8.9090841e-11
0.41629622
1.9810964e-06
-4.8876895e-11
0.41629619
-1.2189764e-06
4.0232936e-10
-1.9671568e-06
-2.1386419e-10
0.48377591
1.180333e-06
7.6217358e-11
0.48377586
2.0251333e-06
-4.2453879e-11
0.48377581
-1.168464e-06
4.1124163e-10
-2.0131791e-06
-2.1761976e-10
0.56004654
1.1098877e-06
6.0777741e-11
0.56004651
2.0530404e-06
-3.2419962e-11
0.56004644
-1.0992304e-06
4.1685268e-10
-2.0428871e-06
-2.1604873e-10
0.64591208
1.0203762e-06
4.3289606e-11
0.64591207
2.061775e-06
-1.8960875e-11
0.64591198
-1.0107628e-06
4.187562e-10
-2.0532535e-06
-2.0986842e-10
0.74218556
9.118678e-07
2.4258556e-11
0.74218557
2.0483043e-06
-2.2384721e-12
0.74218546
-9.0314829e-07
4.1656504e-10
-2.0412605e-06
-1.997502e-10
0.84967999
7.8512192e-07
4.1849755e-12
0.84968002
2.0097099e-06
1.7601396e-11
0.8496799
-7.771644e-07
4.0992822e-10
-2.0040039e-06
-1.8633455e-10
0.96919798
6.4165832e-07
-1.6431379e-11
0.96919804
1.943314e-06
4.0419964e-11
0.9691979
-6.343489e-07
3.9854912e-10
-1.9388186e-06
-1.7024303e-10
1.1015202
4.838006e-07
-3.7090508e-11
1.1015203
1.8468256e-06
6.6075247e-11
1.1015201
-4.7704253e-07
3.8220354e-10
-1.843424e-06
-1.5208659e-10
1.2473927
3.1468368e-07
-5.7295438e-11
1.2473928
1.7185056e-06
9.4422808e-11
1.2473927
-3.0839598e-07
3.6075854e-10
-1.7160889e-06
-1.3247022e-10
1.4075138
1.3821825e-07
-7.6560232e-11
1.407514
1.557349e-06
1.2530594e-10
1.4075138
-1.3233376e-07
3.3418978e-10
-1.5558139e-06
-1.1199334e-10
1.5825198
-4.0994168e-08
-9.454482e-11
1.58252
1.3632784e-06
1.5854915e-10
1.5825198
4.6531286e-08
3.0259725e-10
-1.3625238e-06
-9.1246966e-11
1.7729709
-2.1780078e-07
-1.1056643e-10
1.7729711
1.137342e-06
1.9395397e-10
1.7729709
2.2303724e-07
2.6621925e-10
-1.1372663e-06
-7.0807504e-11
1.9793366
-3.8669074e-07
-1.2441931e-10
1.9793369
8.8190705e-07
2.312983e-10
1.9793367
3.9166731e-07
2.2544436e-10
-8.8240559e-07
-5.1225721e-11
2.201982
-5.4204158e-07
-1.3581582e-10
2.2019823
6.0083923e-07
2.7033681e-10
2.2019821
5.4679601e-07
1.8082206e-10
-6.0180142e-07
-3.3015548e-11
2.4411542
-6.7840986e-07
-1.4457475e-10
2.4411545
2.9965383e-07
3.1080407e-10
2.4411543
6.829798e-07
1.3307153e-10
-3.0096126e-07
-1.6640695e-11
2.6969699
-7.9085308e-07
-1.5064271e-10
2.6969703
-1.4373364e-08
3.5242057e-10
2.6969701
7.9527854e-07
8.309041e-11
1.2848259e-08
-2.4941128e-12
2.9694049
-8.752635e-07
-1.5411626e-10
2.9694053
-3.3215193e-07
3.9490001e-10
2.9694052
8.7958845e-07
3.196287e-11
3.3054569e-07
9.1340656e-12
3.2582844
-9.2868858e-07
-1.5526378e-10
3.2582847
-6.4279641e-07
4.3794175e-10
3.2582846
9.3296031e-07
-1.9039124e-11
6.4125277e-07
1.7993098e-11
3.5632759
-9.4960634e-07
-1.5453944e-10
3.5632762
-9.3374302e-07
4.8123122e-10
3.5632762
9.5387212e-07
-6.8452909e-11
9.3240756e-07
2.3996901e-11
3.8838849
-9.3812062e-07
-1.5259139e-10
3.8838852
-1.1909924e-06
5.2439057e-10
3.8838852
9.4241954e-07
-1.1464511e-10
1.1900031e-06
2.7140409e-11
4.2194525
-8.960385e-07
-1.5025557e-10
4.2194527
-1.3995237e-06
5.6690609e-10
4.2194527
9.0038725e-07
-1.5585523e-10
1.3989962e-06
2.7517089e-11
4.5691558
-8.267954e-07
-1.4852494e-10
4.569156
-1.5439482e-06
6.0799602e-10
4.5691561
8.3116713e-07
-1.9028467e-10
1.5439553e-06
2.5326042e-11
4.9320123
-7.3520426e-07
-1.4848761e-10
4.9320124
-1.6095097e-06
6.4641148e-10
4.9320124
7.3950134e-07
-2.162077e-10
1.6100582e-06
2.0902098e-11
5.3068856
-6.2703086e-07
-1.5121524e-10
5.3068856
-1.5836005e-06
6.8015661e-10
5.3068857
6.3105593e-07
-2.3216614e-10
1.5846084e-06
1.4831503e-11
5.6924958
-5.0845003e-07
-1.5759735e-10
5.6924957
-1.4580565e-06
7.0608958e-10
5.6924958
5.1188464e-07
-2.3704722e-10
1.4593457e-06
8.2676031e-12
6.0874315
-3.855325e-07
-1.6815084e-10
6.0874313
-1.2326477e-06
7.1935658e-10
6.0874314
3.8794024e-07
-2.2987679e-10
1.233968e-06
3.6197313e-12
6.490165
-2.6405799e-07
-1.8295257e-10
6.4901647
-9.202958e-07
7.1298945e-10
6.4901648
2.6493823e-07
-2.0912218e-10
9.2140827e-07
5.6295008e-12
6.8990701
-1.5014082e-07
-2.022169e-10
6.8990697
-5.5450078e-07
6.772254e-10
6.8990698
1.4908436e-07
-1.7091146e-10
5.5533877e-07
2.3132038e-11
7.3124413
-5.3148191e-08
-2.2602916e-10
7.3124409
-2.0177097e-07
6.0181799e-10
7.312441
5.0253952e-08
-1.1321715e-10
2.0263625e-07
6.5650121e-11
7.7285156
-2.3115216e-10
7.7285154
4.0645397e-10
7.7285155
-1.84533e-11
1.4325496e-10
-0.15096889
-7.4680893e-08
-0.15096882
-8.4541834e-08
-0.15096889
7.2077597e-08
7.5621307e-08
-0.19604443
-2.6644238e-07
-0.19604425
-2.7285255e-07
-0.19604443
2.767645e-07
2.5759884e-07
-0.21377634
-4.0323106e-07
-0.2137762
-4.0343634e-07
-0.21377633
4.203664e-07
3.9424869e-07
-0.20507932
-4.5747612e-07
-0.20507925
-4.6339711e-07
-0.20507931
4.7825934e-07
4.5966033e-07
-0.18557697
-3.8421545e-07
-0.18557703
-4.0339181e-07
-0.18557696
4.0894821e-07
4.0457341e-07
-0.16359012
-2.4434389e-07
-0.16359025
-2.7153778e-07
-0.16359011
2.7404115e-07
2.7809004e-07
-0.14265716
-1.0092074e-07
-0.1426573
-1.2827709e-07
-0.14265716
1.3625676e-07
1.4075946e-07
-0.12367217
1.5297946e-08
-0.12367229
-7.4010258e-09
-0.12367217
2.5647919e-08
2.6022935e-08
-0.10634118
1.0242945e-07
-0.10634127
8.5468922e-08
-0.10634118
-5.6429153e-08
-6.0945149e-08
-0.090107897
1.7362574e-07
-0.090107974
1.612837e-07
-0.0901079
-1.234195e-07
-1.3145595e-07
-0.074578416
2.438131e-07
-0.074578491
2.3466375e-07
-0.074578419
-1.9034698e-07
-2.0034497e-07
-0.059591903
3.2200963e-07
-0.059591985
3.156957e-07
-0.059591905
-2.6634975e-07
-2.7779861e-07
-0.045128438
4.1008076e-07
-0.045128531
4.0759674e-07
-0.045128441
-3.5327418e-07
-3.6704989e-07
-0.031192057
5.0488935e-07
-0.031192159
5.0828874e-07
-0.031192062
-4.4787438e-07
-4.6598482e-07
-0.017731116
6.01325e-07
-0.017731223
6.1328665e-07
-0.017731124
-5.4491559e-07
-5.7005453e-07
-0.0046052122
6.9464932e-07
-0.004605319
7.1814453e-07
-0.0046052233
-6.3955446e-07
-6.7473236e-07
0.0084150391
7.8173611e-07
0.0084149354
8.1980712e-07
0.0084150249
-7.2851993e-07
-7.7686717e-07
0.0216325
8.611942e-07
0.021632401
9.1694683e-07
0.021632483
-8.1028878e-07
-8.7502841e-07
0.035404789
9.329381e-07
0.035404694
1.0096711e-06
0.035404768
-8.8465551e-07
-9.692194e-07
0.050128932
9.9759365e-07
0.05012884
1.0989734e-06
0.050128907
-9.5218737e-07
-1.0603342e-06
0.066231586
1.0560395e-06
0.066231497
1.1861833e-06
0.066231557
-1.013664e-06
-1.1496038e-06
0.084164522
1.1089531e-06
0.084164434
1.2725359e-06
0.084164488
-1.0696801e-06
-1.2382044e-06
0.104404
1.1565872e-06
0.10440391
1.358898e-06
0.10440396
-1.1204197e-06
-1.3268868e-06
0.12745248
1.1986774e-06
0.12745239
1.4456213e-06
0.12745243
-1.1655642e-06
-1.4159378e-06
0.15384142
1.2344521e-06
0.15384133
1.5325063e-06
0.15384137
-1.2043015e-06
-1.5051056e-06
0.1841341
1.2627045e-06
0.18413401
1.6188176e-06
0.18413404
-1.2353956e-06
-1.5936153e-06
0.21892786
1.2818958e-06
0.21892777
1.7033347e-06
0.21892779
-1.2572876e-06
-1.6802153e-06
0.25885551
1.2902736e-06
0.25885542
1.7844061e-06
0.25885543
-1.2682125e-06
-1.7632336e-06
0.30458545
1.2859926e-06
0.30458537
1.8600081e-06
0.30458536
-1.2663189e-06
-1.8406347e-06
0.35682065
1.2672368e-06
0.35682058
1.9277991e-06
0.35682056
-1.2497892e-06
-1.9100724e-06
0.41629626
1.2323392e-06
0.4162962
1.9851724e-06
0.41629616
-1.2169592e-06
-1.9689415e-06
0.48377588
1.1799007e-06
0.48377584
2.0293104e-06
0.48377578
-1.166435e-06
-2.0144308e-06
0.56004651
1.1089062e-06
0.56004648
2.0572455e-06
0.56004641
-1.0972092e-06
-2.0435828e-06
0.64591205
1.0188373e-06
0.64591204
2.0659322e-06
0.64591194
-1.0087718e-06
-2.0533647e-06
0.74218553
9.097756e-07
0.74218554
2.0523345e-06
0.74218543
-9.0121367e-07
-2.040755e-06
0.84967996
7.8249417e-07
0.84968
2.0135317e-06
0.84967987
-7.7531621e-07
-2.0028481e-06
0.96919795
6.3852757e-07
0.96919801
1.9468442e-06
0.96919787
-6.3262158e-07
-1.9369793e-06
1.1015201
4.8021486e-07
1.1015202
1.8499802e-06
1.1015201
-4.7547477e-07
-1.8408705e-06
1.2473927
3.1070661e-07
1.2473928
1.7212016e-06
1.2473926
-3.0703028e-07
-1.7127958e-06
1.4075138
1.3392874e-07
1.4075139
1.5595064e-06
1.4075138
-1.3121561e-07
-1.5517631e-06
1.5825198
-4.5503594e-08
1.58252
1.3648223e-06
1.5825198
4.735471e-08
-1.3577072e-06
1.7729709
-2.224251e-07
1.7729711
1.1382056e-06
1.7729709
2.235189e-07
-1.1316885e-06
1.9793366
-3.9131585e-07
1.9793368
8.8203471e-07
1.9793367
3.9176262e-07
-8.7608625e-07
2.201982
-5.4654809e-07
2.2019823
6.0018982e-07
2.2019821
5.4646572e-07
-5.9477787e-07
2.4411542
-6.8267786e-07
2.4411545
2.9820444e-07
2.4411543
6.8219332e-07
-2.9329101e-07
2.6969699
-7.947679e-07
2.6969703
-1.6623801e-08
2.6969701
7.9401776e-07
2.1085345e-08
2.9694049
-8.7872243e-07
2.9694053
-3.3517899e-07
2.9694052
8.7785167e-07
3.3924573e-07
3.2582844
-9.3160791e-07
3.2582847
-6.4654711e-07
3.2582846
9.3076663e-07
6.5028569e-07
3.5632759
-9.5192906e-07
3.5632762
-9.3813335e-07
3.5632762
9.5126509e-07
9.4161625e-07
3.8838849
-9.3982379e-07
3.8838852
-1.1959061e-06
3.8838852
9.3947029e-07
1.1992029e-06
4.2194525
-8.9713947e-07
4.2194527
-1.4048126e-06
4.2194527
8.9719614e-07
1.407975e-06
4.5691559
-8.2735567e-07
4.569156
-1.5494349e-06
4.5691561
8.2786329e-07
1.5524761e-06
4.9320123
-7.3532919e-07
4.9320124
-1.6149944e-06
4.9320125
7.3623962e-07
1.617864e-06
5.3068857
-6.2686302e-07
5.3068856
-1.5888725e-06
5.3068857
6.2801166e-07
1.5914354e-06
5.6924959
-5.0815417e-07
5.6924957
-1.4629185e-06
5.6924959
5.0924924e-07
1.4649494e-06
6.0874315
-3.8527167e-07
6.0874313
-1.236964e-06
6.0874314
3.8592632e-07
1.23818e-06
6.4901651
-2.6396637e-07
6.4901647
-9.2408928e-07
6.4901649
2.6381149e-07
9.2425004e-07
6.8990701
-1.5030726e-07
6.8990697
-5.5814837e-07
6.8990698
1.4923456e-07
5.5726051e-07
7.3124413
-5.3607565e-08
7.3124409
-2.0586648e-07
7.312441
5.2145814e-08
2.045832e-07
7.7285156
7.7285154
7.7285155
)
;

boundaryField
{
    movingWall
    {
        type            calculated;
        value           uniform 0;
    }
    CPLReceiveMD
    {
        type            calculated;
        value           uniform 0;
    }
    streamwiseIn
    {
        type            cyclic;
        value           nonuniform List<scalar> 
120
(
0.15096896
0.19604465
0.21377654
0.20507944
0.18557696
0.16359002
0.14265703
0.12367205
0.10634109
0.090107823
0.074578346
0.059591825
0.045128349
0.031191959
0.017731014
0.0046051104
-0.008415137
-0.021632592
-0.035404875
-0.050129012
-0.066231661
-0.084164593
-0.10440406
-0.12745254
-0.15384148
-0.18413415
-0.2189279
-0.25885554
-0.30458547
-0.35682066
-0.41629625
-0.48377586
-0.56004647
-0.64591199
-0.74218545
-0.84967986
-0.96919783
-1.10152
-1.2473925
-1.4075136
-1.5825196
-1.7729707
-1.9793364
-2.2019818
-2.441154
-2.6969698
-2.9694049
-3.2582843
-3.5632759
-3.8838849
-4.2194525
-4.5691559
-4.9320124
-5.3068857
-5.6924959
-6.0874316
-6.4901651
-6.8990702
-7.3124414
-7.7285157
0.15096895
0.19604462
0.21377648
0.20507938
0.18557691
0.16358999
0.14265703
0.12367206
0.1063411
0.090107834
0.074578353
0.059591831
0.045128354
0.031191966
0.017731022
0.0046051202
-0.0084151257
-0.02163258
-0.035404861
-0.050128997
-0.066231646
-0.084164577
-0.10440404
-0.12745252
-0.15384146
-0.18413413
-0.21892788
-0.25885552
-0.30458544
-0.35682063
-0.41629622
-0.48377583
-0.56004644
-0.64591196
-0.74218542
-0.84967983
-0.9691978
-1.10152
-1.2473925
-1.4075136
-1.5825196
-1.7729707
-1.9793364
-2.2019818
-2.441154
-2.6969698
-2.9694049
-3.2582843
-3.5632759
-3.8838849
-4.2194525
-4.5691559
-4.9320124
-5.3068858
-5.692496
-6.0874317
-6.4901652
-6.8990702
-7.3124414
-7.7285157
)
;
    }
    streamwiseOut
    {
        type            cyclic;
        value           nonuniform List<scalar> 
120
(
-0.15096896
-0.19604465
-0.21377654
-0.20507944
-0.18557696
-0.16359002
-0.14265703
-0.12367205
-0.10634109
-0.090107823
-0.074578346
-0.059591825
-0.045128349
-0.031191959
-0.017731014
-0.0046051104
0.008415137
0.021632592
0.035404875
0.050129012
0.066231661
0.084164593
0.10440406
0.12745254
0.15384148
0.18413415
0.2189279
0.25885554
0.30458547
0.35682066
0.41629625
0.48377586
0.56004647
0.64591199
0.74218545
0.84967986
0.96919783
1.10152
1.2473925
1.4075136
1.5825196
1.7729707
1.9793364
2.2019818
2.441154
2.6969698
2.9694049
3.2582843
3.5632759
3.8838849
4.2194525
4.5691559
4.9320124
5.3068857
5.6924959
6.0874316
6.4901651
6.8990702
7.3124414
7.7285157
-0.15096895
-0.19604462
-0.21377648
-0.20507938
-0.18557691
-0.16358999
-0.14265703
-0.12367206
-0.1063411
-0.090107834
-0.074578353
-0.059591831
-0.045128354
-0.031191966
-0.017731022
-0.0046051202
0.0084151257
0.02163258
0.035404861
0.050128997
0.066231646
0.084164577
0.10440404
0.12745252
0.15384146
0.18413413
0.21892788
0.25885552
0.30458544
0.35682063
0.41629622
0.48377583
0.56004644
0.64591196
0.74218542
0.84967983
0.9691978
1.10152
1.2473925
1.4075136
1.5825196
1.7729707
1.9793364
2.2019818
2.441154
2.6969698
2.9694049
3.2582843
3.5632759
3.8838849
4.2194525
4.5691559
4.9320124
5.3068858
5.692496
6.0874317
6.4901652
6.8990702
7.3124414
7.7285157
)
;
    }
    front
    {
        type            cyclic;
        value           nonuniform 0();
    }
    back
    {
        type            cyclic;
        value           nonuniform 0();
    }
    procBoundary0to1
    {
        type            processor;
        value           nonuniform List<scalar> 
240
(
6.6633779e-10
-4.1702336e-09
1.7175483e-09
-2.1816424e-09
7.7238953e-09
-3.0622864e-09
8.6656307e-10
-2.546458e-09
9.1855887e-09
-9.9130407e-10
6.4054963e-10
-3.0871766e-09
8.4043832e-09
-2.0472419e-10
8.9221764e-10
-3.0927565e-09
6.8768205e-09
-1.3898553e-10
1.1127665e-09
-2.8350143e-09
5.2987795e-09
-4.8854455e-10
1.2732899e-09
-2.4620669e-09
4.1445607e-09
-8.8257451e-10
1.2688288e-09
-2.1491956e-09
3.2884013e-09
-1.156933e-09
1.149354e-09
-1.9308074e-09
2.6545533e-09
-1.2815073e-09
9.8540675e-10
-1.7818448e-09
2.1975133e-09
-1.2808334e-09
8.2368763e-10
-1.6677928e-09
1.8614086e-09
-1.1971016e-09
6.8178651e-10
-1.5620484e-09
1.5950351e-09
-1.0679074e-09
5.5953093e-10
-1.4493365e-09
1.3678484e-09
-9.2009202e-10
4.5091283e-10
-1.3238596e-09
1.1662816e-09
-7.7044606e-10
3.5072856e-10
-1.1860675e-09
9.8159349e-10
-6.2844895e-10
2.5544305e-10
-1.0397967e-09
8.0486574e-10
-4.9936441e-10
1.6584547e-10
-8.9015871e-10
6.4336293e-10
-3.8650606e-10
9.1666833e-11
-7.4218021e-10
4.9609269e-10
-2.9023381e-10
4.094487e-11
-6.0012115e-10
3.5282941e-10
-2.0947449e-10
-1.7443059e-11
-4.6728065e-10
2.6143558e-10
-1.4281094e-10
-6.91536e-11
-3.4585642e-10
1.7629804e-10
-8.8540661e-11
-1.1584604e-10
-2.4249729e-10
1.0425816e-10
-4.4936055e-11
-1.5876578e-10
-1.2639894e-10
4.5224751e-11
-1.2894686e-11
-1.9782132e-10
-4.3563285e-11
-1.4992428e-12
1.3340962e-11
-2.3326376e-10
2.2896556e-11
-3.6984549e-11
3.3721428e-11
-2.6535915e-10
7.7554588e-11
-6.2464475e-11
4.9440753e-11
-2.9434167e-10
1.2202305e-10
-7.9198021e-11
5.9223392e-11
-3.2037228e-10
1.5733747e-10
-8.8396253e-11
6.4390349e-11
-3.4352566e-10
1.8437177e-10
-9.1174482e-11
6.5765636e-11
-3.6378468e-10
2.0392834e-10
-8.8532061e-11
6.3622127e-11
-3.8104397e-10
2.1675503e-10
-8.1353511e-11
5.8152587e-11
-3.9512115e-10
2.2354912e-10
-7.0422078e-11
4.9492228e-11
-4.057723e-10
2.2496224e-10
-5.6438722e-11
3.773918e-11
-4.1271015e-10
2.216085e-10
-4.0042936e-11
2.2970775e-11
-4.1562398e-10
2.1407477e-10
-2.1831067e-11
5.2567265e-12
-4.1420066e-10
2.0293091e-10
-2.3716555e-12
-1.5331774e-11
-4.0814643e-10
1.8873908e-10
1.7784382e-11
-3.8714419e-11
-3.9720861e-10
1.7206069e-10
3.8098744e-11
-6.4794148e-11
-3.8119672e-10
1.5346081e-10
5.8045604e-11
-9.3460822e-11
-3.6000363e-10
1.3350948e-10
7.7116858e-11
-1.2458368e-10
-3.3362467e-10
1.1277953e-10
9.4918187e-11
-1.5800687e-10
-3.0217494e-10
9.1841932e-11
1.1084171e-10
-1.9354681e-10
-2.6590415e-10
7.1257875e-11
1.2462125e-10
-2.3099266e-10
-2.2520969e-10
5.1566834e-11
1.3596356e-10
-2.7010739e-10
-1.8064755e-10
3.3273944e-11
1.4468263e-10
-3.1063184e-10
-1.3294198e-10
1.6836463e-11
1.5072134e-10
-3.522913e-10
-8.2994431e-11
2.6424706e-12
1.5417348e-10
-3.9480298e-10
-3.1891952e-11
-9.0302042e-12
1.553054e-10
-4.3786893e-10
1.9091414e-11
-1.791464e-11
1.545696e-10
-4.8117662e-10
6.8491527e-11
-2.3937594e-11
1.526132e-10
-5.243496e-10
1.1467365e-10
-2.7095559e-11
1.5027136e-10
-5.668754e-10
1.5587625e-10
-2.7483065e-11
1.4853636e-10
-6.0797307e-10
1.9029858e-10
-2.5300053e-11
1.4849587e-10
-6.4639444e-10
2.1621795e-10
-2.0881916e-11
1.5122125e-10
-6.8014397e-10
2.3217376e-10
-1.4815674e-11
1.5760192e-10
-7.0608022e-10
2.3705294e-10
-8.2549974e-12
1.6815434e-10
-7.1934933e-10
2.2988121e-10
-3.6097307e-12
1.8295529e-10
-7.1298382e-10
2.0912576e-10
-5.6213111e-12
2.02219e-10
-6.7722096e-10
1.7091425e-10
-2.3125205e-11
2.2603052e-10
-6.0181453e-10
1.1321911e-10
-6.5644583e-11
2.3115212e-10
-4.0645219e-10
1.8454213e-11
-1.4325159e-10
)
;
    }
    procBoundary0to1throughfront
    {
        type            processorCyclic;
        value           nonuniform List<scalar> 
240
(
-5.0687704e-09
3.6629462e-10
1.7156074e-09
3.6117373e-09
4.1335734e-09
3.5208922e-09
2.59143e-09
1.6973236e-09
1.0605043e-09
7.3197816e-10
3.6765212e-10
6.3414067e-11
-1.3612159e-10
-2.5239657e-10
-3.0534604e-10
-3.1217314e-10
-3.1322442e-10
-2.4553348e-10
-1.7548813e-10
-1.1878313e-10
-6.8913544e-11
-2.4839827e-11
1.2953956e-11
4.3933088e-11
6.7898507e-11
8.5003608e-11
9.5666389e-11
1.0046385e-10
1.0004474e-10
9.5071255e-11
8.6186169e-11
7.3999665e-11
5.9089502e-11
4.2006433e-11
2.3283563e-11
3.4435169e-12
-1.6996277e-11
-3.7522022e-11
-5.762612e-11
-7.6814293e-11
-9.4702048e-11
-1.1068772e-10
-1.2451331e-10
-1.3588901e-10
-1.4463201e-10
-1.5068772e-10
-1.5415173e-10
-1.5529178e-10
-1.5456152e-10
-1.5260886e-10
-1.502694e-10
-1.4853592e-10
-1.4849637e-10
-1.512222e-10
-1.5760278e-10
-1.681552e-10
-1.829562e-10
-2.0222006e-10
-2.2603213e-10
-2.3115455e-10
-1.0936946e-10
2.893695e-10
-8.3017036e-10
-3.6939679e-10
2.4184906e-11
5.4472063e-10
1.0136637e-09
1.3451752e-09
1.5292727e-09
1.5840175e-09
1.5405888e-09
1.4309945e-09
1.2823208e-09
1.1153669e-09
9.449773e-10
7.8124546e-10
6.3092781e-10
4.974192e-10
3.8181371e-10
2.8388719e-10
2.0246732e-10
1.3590118e-10
8.2614405e-11
4.070934e-11
8.513382e-12
-1.5400677e-11
-3.2333277e-11
-4.3384686e-11
-4.9430623e-11
-5.1032085e-11
-4.8530287e-11
-4.2180376e-11
-3.2201304e-11
-1.8783569e-11
-2.0927429e-12
1.772253e-11
4.052154e-11
6.6160931e-11
9.4495309e-11
1.2536733e-10
1.5860107e-10
1.9399776e-10
2.3133512e-10
2.7036762e-10
3.1082972e-10
3.5244181e-10
3.9491761e-10
4.3795633e-10
4.8124319e-10
5.244003e-10
5.6691385e-10
6.0800226e-10
6.4641656e-10
6.8016077e-10
7.0609294e-10
7.1935932e-10
7.1299168e-10
6.772273e-10
6.0181964e-10
4.0645497e-10
-2.0764321e-09
3.5654118e-10
1.7994194e-09
2.0134111e-09
1.656376e-09
1.0636955e-09
5.6749679e-10
3.8259411e-10
2.944437e-10
2.1548727e-10
1.5421976e-10
1.1081691e-10
8.4078613e-11
7.2492299e-11
7.3747911e-11
8.4630807e-11
1.0221671e-10
1.2405434e-10
1.4699093e-10
1.7031606e-10
1.9403864e-10
2.1963603e-10
2.4469935e-10
2.6918115e-10
2.9277929e-10
3.1521857e-10
3.3623911e-10
3.5557036e-10
3.7291969e-10
3.8796658e-10
4.0036251e-10
4.0973635e-10
4.1570389e-10
4.1788088e-10
4.1589837e-10
4.0942012e-10
3.9816121e-10
3.8190666e-10
3.6053062e-10
3.340142e-10
3.0246143e-10
2.6611377e-10
2.2536223e-10
1.8075801e-10
1.3302148e-10
8.3051375e-11
3.1932368e-11
-1.9063041e-11
-6.8471692e-11
-1.1465978e-10
-1.558666e-10
-1.9029187e-10
-2.1621335e-10
-2.3217054e-10
-2.3705065e-10
-2.2987946e-10
-2.0912444e-10
-1.7091352e-10
-1.1321904e-10
-1.8454564e-11
-1.8172634e-09
-1.3162416e-10
1.8327792e-09
2.5250523e-09
2.6071162e-09
2.3893343e-09
2.1665696e-09
2.0310975e-09
1.9690348e-09
1.9349307e-09
1.890044e-09
1.8124775e-09
1.6966611e-09
1.5476391e-09
1.3754544e-09
1.1911677e-09
1.0045801e-09
8.2337598e-10
6.5312334e-10
4.9680479e-10
3.5399503e-10
2.1913614e-10
1.2468664e-10
4.2612113e-11
-2.5832861e-11
-8.1686212e-11
-1.2613054e-10
-1.6036493e-10
-1.8553864e-10
-2.0271384e-10
-2.1285456e-10
-2.1683148e-10
-2.1543481e-10
-2.0939078e-10
-1.9937847e-10
-1.8604479e-10
-1.700166e-10
-1.519091e-10
-1.3233057e-10
-1.1188303e-10
-9.115949e-11
-7.0737886e-11
-5.1170137e-11
-3.2971055e-11
-1.6605009e-11
-2.4654766e-12
9.1655797e-12
1.8018352e-11
2.4016984e-11
2.7156338e-11
2.7529716e-11
2.5336089e-11
2.0910113e-11
1.4837693e-11
8.272392e-12
3.6235164e-12
5.6325569e-12
2.3134567e-11
6.5652252e-11
1.4325652e-10
)
;
    }
}


// ************************************************************************* //
