LAMMPS Description

     9201  atoms
     9100  bonds
     18000  angles
     26100  dihedrals
     0  impropers

     5  atom types
     2  bond types
     3  angle types
     3  dihedral types

  0.0 36.1 xlo xhi
  0.0 60 ylo yhi
  0.0 36.1 zlo zhi

Masses

  1 12.011
  2 12.011
  3 1.008
  4 1.008
  5 50.0

Atoms # full

1 1 5 0.0 0.0 0.0 0.0
2 2 2 0.0 11.0430002213 0.47499999404 1.19500005245
3 2 2 0.0 16.2140007019 -1.43299996853 -2.1779999733
4 2 2 0.0 14.7349996567 -1.48699998856 -1.72800004482
5 2 2 0.0 12.5430002213 0.45300000906 0.834999978542
6 2 2 0.0 10.6960000992 1.63499999046 2.15599989891
7 2 2 0.0 16.4519996643 -2.54099988937 -3.23099994659
8 2 2 0.0 12.920999527 -0.634999990463 -0.177000001073
9 2 2 0.0 14.373000145 -0.469999998808 -0.64099997282
10 2 2 0.0 17.9090003967 -2.66700005531 -3.69600009918
11 2 2 0.0 10.9340000153 3.02600002289 1.5529999733
12 2 2 0.0 10.4930000305 5.54799985886 1.85199999809
13 2 2 0.0 19.5090007782 -3.99099993706 -5.24499988556
14 2 2 0.0 10.4010000229 4.132999897 2.47199988365
15 2 2 0.0 18.0599994659 -3.77300000191 -4.74700021744
16 2 2 0.0 19.5049991608 -5.14699983597 -6.27299976349
17 2 2 0.0 11.9610004425 5.99800014496 1.6779999733
18 2 1 0.0 10.5939998627 -0.847999989986 1.8259999752
19 2 1 0.0 16.5909996033 -0.0480000004172 -2.71799993515
20 2 2 0.0 12.1479997635 7.35599994659 0.98299998045
21 2 2 0.0 20.8899993896 -5.52099990845 -6.81199979782
22 2 1 0.0 9.68500041962 6.52099990845 2.71499991417
23 2 1 0.0 20.1119995117 -2.71099996567 -5.83199977875
24 2 2 0.0 12.3559999466 8.51700019836 1.96399998665
25 2 2 0.0 20.8059997559 -6.72499990463 -7.757999897
26 2 2 0.0 22.1730003357 -7.17399978638 -8.30900001526
27 2 2 0.0 12.5109996796 9.87899971008 1.25999999046
28 2 1 0.0 22.0030002594 -8.45300006866 -9.13300037384
29 2 1 0.0 22.841999054 -6.09800004959 -9.16600036621
30 2 1 0.0 12.4390001297 11.0100002289 2.28999996185
31 2 1 0.0 13.8210000992 9.98099994659 0.476999998093
32 2 4 0.0 10.4659996033 0.615000009537 0.270999997854
33 2 4 0.0 16.8470001221 -1.64300000668 -1.30700004101
34 2 4 0.0 14.0830001831 -1.33000004292 -2.59599995613
35 2 4 0.0 14.517999649 -2.49499988556 -1.35099995136
36 2 4 0.0 12.8219995499 1.42100000381 0.402999997139
37 2 4 0.0 13.1420001984 0.328999996185 1.74500000477
38 2 4 0.0 16.1369991302 -3.5039999485 -2.80900001526
39 2 4 0.0 15.8109998703 -2.35599994659 -4.10300016403
40 2 4 0.0 9.63799953461 1.5529999733 2.43600010872
41 2 4 0.0 11.2749996185 1.53600001335 3.08200001717
42 2 4 0.0 14.4989995956 0.54699999094 -1.02699995041
43 2 4 0.0 15.0489997864 -0.583999991417 0.215000003576
44 2 4 0.0 12.7989997864 -1.6289999485 0.268999993801
45 2 4 0.0 12.251999855 -0.578999996185 -1.04299998283
46 2 4 0.0 12.0050001144 3.17199993134 1.39300000668
47 2 4 0.0 10.4399995804 3.09200000763 0.577000021935
48 2 4 0.0 18.2280006409 -1.71800005436 -4.13199996948
49 2 4 0.0 18.5559997559 -2.87599992752 -2.83699989319
50 2 4 0.0 10.0209999084 5.51499986649 0.861000001431
51 2 4 0.0 20.125 -4.29400014877 -4.38800001144
52 2 4 0.0 17.4150009155 -3.53999996185 -5.60400009155
53 2 4 0.0 17.6879997253 -4.71400022507 -4.3220000267
54 2 4 0.0 9.34899997711 3.91400003433 2.69899988174
55 2 4 0.0 10.9399995804 4.11000013351 3.42700004578
56 2 4 0.0 19.061000824 -6.03299999237 -5.80100011826
57 2 4 0.0 18.8540000916 -4.88199996948 -7.11600017548
58 2 4 0.0 12.4779996872 5.98799991608 2.64599990845
59 2 4 0.0 12.4720001221 5.25899982452 1.05099999905
60 2 3 0.0 15.9890003204 0.21099999547 -3.59500002861
61 2 3 0.0 16.4479999542 0.731000006199 -1.96300005913
62 2 3 0.0 17.6459999084 0.00200000009499 -3.0
63 2 3 0.0 9.54100036621 -0.800000011921 2.125
64 2 3 0.0 10.6870002747 -1.67900002003 1.1210000515
65 2 3 0.0 11.1870002747 -1.08399999142 2.71600008011
66 2 4 0.0 11.3059997559 7.5640001297 0.31400001049
67 2 4 0.0 13.0389995575 7.27699995041 0.349000006914
68 2 4 0.0 21.5629997253 -5.75199985504 -5.97800016403
69 2 4 0.0 21.311000824 -4.67000007629 -7.35400009155
70 2 3 0.0 9.57400035858 7.48999977112 2.21900010109
71 2 3 0.0 10.1610002518 6.6779999733 3.68899989128
72 2 3 0.0 20.1550006866 -1.9090000391 -5.08900022507
73 2 3 0.0 21.1420001984 -2.86599993706 -6.16400003433
74 2 3 0.0 19.5270004272 -2.35500001907 -6.68699979782
75 2 3 0.0 8.67300033569 6.14099979401 2.89199995995
76 2 4 0.0 20.3479995728 -7.5640001297 -7.21899986267
77 2 4 0.0 20.1340007782 -6.48400020599 -8.59200000763
78 2 4 0.0 11.5069999695 8.57100009918 2.65199995041
79 2 4 0.0 13.2419996262 8.31900024414 2.58200001717
80 2 4 0.0 11.6780004501 10.0129995346 0.559000015259
81 2 4 0.0 22.8349990845 -7.40199995041 -7.46500015259
82 2 3 0.0 21.563999176 -9.25199985504 -8.52600002289
83 2 3 0.0 21.3500003815 -8.28499984741 -9.9969997406
84 2 3 0.0 22.9699993134 -8.80900001526 -9.5030002594
85 2 3 0.0 22.1840000153 -5.76999998093 -9.97799968719
86 2 3 0.0 23.1100006104 -5.22100019455 -8.56900024414
87 2 3 0.0 23.7670001984 -6.47700023651 -9.61400032043
88 2 3 0.0 11.4829998016 10.9899997711 2.82299995422
89 2 3 0.0 12.5260000229 11.9870004654 1.80200004578
90 2 3 0.0 13.2430000305 10.9270000458 3.02900004387
91 2 3 0.0 13.9320001602 10.9759998322 0.0320000015199
92 2 3 0.0 14.6859998703 9.80500030518 1.12699997425
93 2 3 0.0 13.857000351 9.25500011444 -0.340000003576
94 3 2 0.0 11.0430002213 0.47499999404 1.19500005245
95 3 2 0.0 16.2140007019 -1.43299996853 -2.1779999733
96 3 2 0.0 14.7349996567 -1.48699998856 -1.72800004482
97 3 2 0.0 12.5430002213 0.45300000906 0.834999978542
98 3 2 0.0 10.6960000992 1.63499999046 2.15599989891
99 3 2 0.0 16.4519996643 -2.54099988937 -3.23099994659
100 3 2 0.0 12.920999527 -0.634999990463 -0.177000001073
101 3 2 0.0 14.373000145 -0.469999998808 -0.64099997282
102 3 2 0.0 17.9090003967 -2.66700005531 -3.69600009918
103 3 2 0.0 10.9340000153 3.02600002289 1.5529999733
104 3 2 0.0 10.4930000305 5.54799985886 1.85199999809
105 3 2 0.0 19.5090007782 -3.99099993706 -5.24499988556
106 3 2 0.0 10.4010000229 4.132999897 2.47199988365
107 3 2 0.0 18.0599994659 -3.77300000191 -4.74700021744
108 3 2 0.0 19.5049991608 -5.14699983597 -6.27299976349
109 3 2 0.0 11.9610004425 5.99800014496 1.6779999733
110 3 1 0.0 10.5939998627 -0.847999989986 1.8259999752
111 3 1 0.0 16.5909996033 -0.0480000004172 -2.71799993515
112 3 2 0.0 12.1479997635 7.35599994659 0.98299998045
113 3 2 0.0 20.8899993896 -5.52099990845 -6.81199979782
114 3 1 0.0 9.68500041962 6.52099990845 2.71499991417
115 3 1 0.0 20.1119995117 -2.71099996567 -5.83199977875
116 3 2 0.0 12.3559999466 8.51700019836 1.96399998665
117 3 2 0.0 20.8059997559 -6.72499990463 -7.757999897
118 3 2 0.0 22.1730003357 -7.17399978638 -8.30900001526
119 3 2 0.0 12.5109996796 9.87899971008 1.25999999046
120 3 1 0.0 22.0030002594 -8.45300006866 -9.13300037384
121 3 1 0.0 22.841999054 -6.09800004959 -9.16600036621
122 3 1 0.0 12.4390001297 11.0100002289 2.28999996185
123 3 1 0.0 13.8210000992 9.98099994659 0.476999998093
124 3 4 0.0 10.4659996033 0.615000009537 0.270999997854
125 3 4 0.0 16.8470001221 -1.64300000668 -1.30700004101
126 3 4 0.0 14.0830001831 -1.33000004292 -2.59599995613
127 3 4 0.0 14.517999649 -2.49499988556 -1.35099995136
128 3 4 0.0 12.8219995499 1.42100000381 0.402999997139
129 3 4 0.0 13.1420001984 0.328999996185 1.74500000477
130 3 4 0.0 16.1369991302 -3.5039999485 -2.80900001526
131 3 4 0.0 15.8109998703 -2.35599994659 -4.10300016403
132 3 4 0.0 9.63799953461 1.5529999733 2.43600010872
133 3 4 0.0 11.2749996185 1.53600001335 3.08200001717
134 3 4 0.0 14.4989995956 0.54699999094 -1.02699995041
135 3 4 0.0 15.0489997864 -0.583999991417 0.215000003576
136 3 4 0.0 12.7989997864 -1.6289999485 0.268999993801
137 3 4 0.0 12.251999855 -0.578999996185 -1.04299998283
138 3 4 0.0 12.0050001144 3.17199993134 1.39300000668
139 3 4 0.0 10.4399995804 3.09200000763 0.577000021935
140 3 4 0.0 18.2280006409 -1.71800005436 -4.13199996948
141 3 4 0.0 18.5559997559 -2.87599992752 -2.83699989319
142 3 4 0.0 10.0209999084 5.51499986649 0.861000001431
143 3 4 0.0 20.125 -4.29400014877 -4.38800001144
144 3 4 0.0 17.4150009155 -3.53999996185 -5.60400009155
145 3 4 0.0 17.6879997253 -4.71400022507 -4.3220000267
146 3 4 0.0 9.34899997711 3.91400003433 2.69899988174
147 3 4 0.0 10.9399995804 4.11000013351 3.42700004578
148 3 4 0.0 19.061000824 -6.03299999237 -5.80100011826
149 3 4 0.0 18.8540000916 -4.88199996948 -7.11600017548
150 3 4 0.0 12.4779996872 5.98799991608 2.64599990845
151 3 4 0.0 12.4720001221 5.25899982452 1.05099999905
152 3 3 0.0 15.9890003204 0.21099999547 -3.59500002861
153 3 3 0.0 16.4479999542 0.731000006199 -1.96300005913
154 3 3 0.0 17.6459999084 0.00200000009499 -3.0
155 3 3 0.0 9.54100036621 -0.800000011921 2.125
156 3 3 0.0 10.6870002747 -1.67900002003 1.1210000515
157 3 3 0.0 11.1870002747 -1.08399999142 2.71600008011
158 3 4 0.0 11.3059997559 7.5640001297 0.31400001049
159 3 4 0.0 13.0389995575 7.27699995041 0.349000006914
160 3 4 0.0 21.5629997253 -5.75199985504 -5.97800016403
161 3 4 0.0 21.311000824 -4.67000007629 -7.35400009155
162 3 3 0.0 9.57400035858 7.48999977112 2.21900010109
163 3 3 0.0 10.1610002518 6.6779999733 3.68899989128
164 3 3 0.0 20.1550006866 -1.9090000391 -5.08900022507
165 3 3 0.0 21.1420001984 -2.86599993706 -6.16400003433
166 3 3 0.0 19.5270004272 -2.35500001907 -6.68699979782
167 3 3 0.0 8.67300033569 6.14099979401 2.89199995995
168 3 4 0.0 20.3479995728 -7.5640001297 -7.21899986267
169 3 4 0.0 20.1340007782 -6.48400020599 -8.59200000763
170 3 4 0.0 11.5069999695 8.57100009918 2.65199995041
171 3 4 0.0 13.2419996262 8.31900024414 2.58200001717
172 3 4 0.0 11.6780004501 10.0129995346 0.559000015259
173 3 4 0.0 22.8349990845 -7.40199995041 -7.46500015259
174 3 3 0.0 21.563999176 -9.25199985504 -8.52600002289
175 3 3 0.0 21.3500003815 -8.28499984741 -9.9969997406
176 3 3 0.0 22.9699993134 -8.80900001526 -9.5030002594
177 3 3 0.0 22.1840000153 -5.76999998093 -9.97799968719
178 3 3 0.0 23.1100006104 -5.22100019455 -8.56900024414
179 3 3 0.0 23.7670001984 -6.47700023651 -9.61400032043
180 3 3 0.0 11.4829998016 10.9899997711 2.82299995422
181 3 3 0.0 12.5260000229 11.9870004654 1.80200004578
182 3 3 0.0 13.2430000305 10.9270000458 3.02900004387
183 3 3 0.0 13.9320001602 10.9759998322 0.0320000015199
184 3 3 0.0 14.6859998703 9.80500030518 1.12699997425
185 3 3 0.0 13.857000351 9.25500011444 -0.340000003576
186 4 2 0.0 11.0430002213 0.47499999404 1.19500005245
187 4 2 0.0 16.2140007019 -1.43299996853 -2.1779999733
188 4 2 0.0 14.7349996567 -1.48699998856 -1.72800004482
189 4 2 0.0 12.5430002213 0.45300000906 0.834999978542
190 4 2 0.0 10.6960000992 1.63499999046 2.15599989891
191 4 2 0.0 16.4519996643 -2.54099988937 -3.23099994659
192 4 2 0.0 12.920999527 -0.634999990463 -0.177000001073
193 4 2 0.0 14.373000145 -0.469999998808 -0.64099997282
194 4 2 0.0 17.9090003967 -2.66700005531 -3.69600009918
195 4 2 0.0 10.9340000153 3.02600002289 1.5529999733
196 4 2 0.0 10.4930000305 5.54799985886 1.85199999809
197 4 2 0.0 19.5090007782 -3.99099993706 -5.24499988556
198 4 2 0.0 10.4010000229 4.132999897 2.47199988365
199 4 2 0.0 18.0599994659 -3.77300000191 -4.74700021744
200 4 2 0.0 19.5049991608 -5.14699983597 -6.27299976349
201 4 2 0.0 11.9610004425 5.99800014496 1.6779999733
202 4 1 0.0 10.5939998627 -0.847999989986 1.8259999752
203 4 1 0.0 16.5909996033 -0.0480000004172 -2.71799993515
204 4 2 0.0 12.1479997635 7.35599994659 0.98299998045
205 4 2 0.0 20.8899993896 -5.52099990845 -6.81199979782
206 4 1 0.0 9.68500041962 6.52099990845 2.71499991417
207 4 1 0.0 20.1119995117 -2.71099996567 -5.83199977875
208 4 2 0.0 12.3559999466 8.51700019836 1.96399998665
209 4 2 0.0 20.8059997559 -6.72499990463 -7.757999897
210 4 2 0.0 22.1730003357 -7.17399978638 -8.30900001526
211 4 2 0.0 12.5109996796 9.87899971008 1.25999999046
212 4 1 0.0 22.0030002594 -8.45300006866 -9.13300037384
213 4 1 0.0 22.841999054 -6.09800004959 -9.16600036621
214 4 1 0.0 12.4390001297 11.0100002289 2.28999996185
215 4 1 0.0 13.8210000992 9.98099994659 0.476999998093
216 4 4 0.0 10.4659996033 0.615000009537 0.270999997854
217 4 4 0.0 16.8470001221 -1.64300000668 -1.30700004101
218 4 4 0.0 14.0830001831 -1.33000004292 -2.59599995613
219 4 4 0.0 14.517999649 -2.49499988556 -1.35099995136
220 4 4 0.0 12.8219995499 1.42100000381 0.402999997139
221 4 4 0.0 13.1420001984 0.328999996185 1.74500000477
222 4 4 0.0 16.1369991302 -3.5039999485 -2.80900001526
223 4 4 0.0 15.8109998703 -2.35599994659 -4.10300016403
224 4 4 0.0 9.63799953461 1.5529999733 2.43600010872
225 4 4 0.0 11.2749996185 1.53600001335 3.08200001717
226 4 4 0.0 14.4989995956 0.54699999094 -1.02699995041
227 4 4 0.0 15.0489997864 -0.583999991417 0.215000003576
228 4 4 0.0 12.7989997864 -1.6289999485 0.268999993801
229 4 4 0.0 12.251999855 -0.578999996185 -1.04299998283
230 4 4 0.0 12.0050001144 3.17199993134 1.39300000668
231 4 4 0.0 10.4399995804 3.09200000763 0.577000021935
232 4 4 0.0 18.2280006409 -1.71800005436 -4.13199996948
233 4 4 0.0 18.5559997559 -2.87599992752 -2.83699989319
234 4 4 0.0 10.0209999084 5.51499986649 0.861000001431
235 4 4 0.0 20.125 -4.29400014877 -4.38800001144
236 4 4 0.0 17.4150009155 -3.53999996185 -5.60400009155
237 4 4 0.0 17.6879997253 -4.71400022507 -4.3220000267
238 4 4 0.0 9.34899997711 3.91400003433 2.69899988174
239 4 4 0.0 10.9399995804 4.11000013351 3.42700004578
240 4 4 0.0 19.061000824 -6.03299999237 -5.80100011826
241 4 4 0.0 18.8540000916 -4.88199996948 -7.11600017548
242 4 4 0.0 12.4779996872 5.98799991608 2.64599990845
243 4 4 0.0 12.4720001221 5.25899982452 1.05099999905
244 4 3 0.0 15.9890003204 0.21099999547 -3.59500002861
245 4 3 0.0 16.4479999542 0.731000006199 -1.96300005913
246 4 3 0.0 17.6459999084 0.00200000009499 -3.0
247 4 3 0.0 9.54100036621 -0.800000011921 2.125
248 4 3 0.0 10.6870002747 -1.67900002003 1.1210000515
249 4 3 0.0 11.1870002747 -1.08399999142 2.71600008011
250 4 4 0.0 11.3059997559 7.5640001297 0.31400001049
251 4 4 0.0 13.0389995575 7.27699995041 0.349000006914
252 4 4 0.0 21.5629997253 -5.75199985504 -5.97800016403
253 4 4 0.0 21.311000824 -4.67000007629 -7.35400009155
254 4 3 0.0 9.57400035858 7.48999977112 2.21900010109
255 4 3 0.0 10.1610002518 6.6779999733 3.68899989128
256 4 3 0.0 20.1550006866 -1.9090000391 -5.08900022507
257 4 3 0.0 21.1420001984 -2.86599993706 -6.16400003433
258 4 3 0.0 19.5270004272 -2.35500001907 -6.68699979782
259 4 3 0.0 8.67300033569 6.14099979401 2.89199995995
260 4 4 0.0 20.3479995728 -7.5640001297 -7.21899986267
261 4 4 0.0 20.1340007782 -6.48400020599 -8.59200000763
262 4 4 0.0 11.5069999695 8.57100009918 2.65199995041
263 4 4 0.0 13.2419996262 8.31900024414 2.58200001717
264 4 4 0.0 11.6780004501 10.0129995346 0.559000015259
265 4 4 0.0 22.8349990845 -7.40199995041 -7.46500015259
266 4 3 0.0 21.563999176 -9.25199985504 -8.52600002289
267 4 3 0.0 21.3500003815 -8.28499984741 -9.9969997406
268 4 3 0.0 22.9699993134 -8.80900001526 -9.5030002594
269 4 3 0.0 22.1840000153 -5.76999998093 -9.97799968719
270 4 3 0.0 23.1100006104 -5.22100019455 -8.56900024414
271 4 3 0.0 23.7670001984 -6.47700023651 -9.61400032043
272 4 3 0.0 11.4829998016 10.9899997711 2.82299995422
273 4 3 0.0 12.5260000229 11.9870004654 1.80200004578
274 4 3 0.0 13.2430000305 10.9270000458 3.02900004387
275 4 3 0.0 13.9320001602 10.9759998322 0.0320000015199
276 4 3 0.0 14.6859998703 9.80500030518 1.12699997425
277 4 3 0.0 13.857000351 9.25500011444 -0.340000003576
278 5 2 0.0 11.0430002213 0.47499999404 1.19500005245
279 5 2 0.0 16.2140007019 -1.43299996853 -2.1779999733
280 5 2 0.0 14.7349996567 -1.48699998856 -1.72800004482
281 5 2 0.0 12.5430002213 0.45300000906 0.834999978542
282 5 2 0.0 10.6960000992 1.63499999046 2.15599989891
283 5 2 0.0 16.4519996643 -2.54099988937 -3.23099994659
284 5 2 0.0 12.920999527 -0.634999990463 -0.177000001073
285 5 2 0.0 14.373000145 -0.469999998808 -0.64099997282
286 5 2 0.0 17.9090003967 -2.66700005531 -3.69600009918
287 5 2 0.0 10.9340000153 3.02600002289 1.5529999733
288 5 2 0.0 10.4930000305 5.54799985886 1.85199999809
289 5 2 0.0 19.5090007782 -3.99099993706 -5.24499988556
290 5 2 0.0 10.4010000229 4.132999897 2.47199988365
291 5 2 0.0 18.0599994659 -3.77300000191 -4.74700021744
292 5 2 0.0 19.5049991608 -5.14699983597 -6.27299976349
293 5 2 0.0 11.9610004425 5.99800014496 1.6779999733
294 5 1 0.0 10.5939998627 -0.847999989986 1.8259999752
295 5 1 0.0 16.5909996033 -0.0480000004172 -2.71799993515
296 5 2 0.0 12.1479997635 7.35599994659 0.98299998045
297 5 2 0.0 20.8899993896 -5.52099990845 -6.81199979782
298 5 1 0.0 9.68500041962 6.52099990845 2.71499991417
299 5 1 0.0 20.1119995117 -2.71099996567 -5.83199977875
300 5 2 0.0 12.3559999466 8.51700019836 1.96399998665
301 5 2 0.0 20.8059997559 -6.72499990463 -7.757999897
302 5 2 0.0 22.1730003357 -7.17399978638 -8.30900001526
303 5 2 0.0 12.5109996796 9.87899971008 1.25999999046
304 5 1 0.0 22.0030002594 -8.45300006866 -9.13300037384
305 5 1 0.0 22.841999054 -6.09800004959 -9.16600036621
306 5 1 0.0 12.4390001297 11.0100002289 2.28999996185
307 5 1 0.0 13.8210000992 9.98099994659 0.476999998093
308 5 4 0.0 10.4659996033 0.615000009537 0.270999997854
309 5 4 0.0 16.8470001221 -1.64300000668 -1.30700004101
310 5 4 0.0 14.0830001831 -1.33000004292 -2.59599995613
311 5 4 0.0 14.517999649 -2.49499988556 -1.35099995136
312 5 4 0.0 12.8219995499 1.42100000381 0.402999997139
313 5 4 0.0 13.1420001984 0.328999996185 1.74500000477
314 5 4 0.0 16.1369991302 -3.5039999485 -2.80900001526
315 5 4 0.0 15.8109998703 -2.35599994659 -4.10300016403
316 5 4 0.0 9.63799953461 1.5529999733 2.43600010872
317 5 4 0.0 11.2749996185 1.53600001335 3.08200001717
318 5 4 0.0 14.4989995956 0.54699999094 -1.02699995041
319 5 4 0.0 15.0489997864 -0.583999991417 0.215000003576
320 5 4 0.0 12.7989997864 -1.6289999485 0.268999993801
321 5 4 0.0 12.251999855 -0.578999996185 -1.04299998283
322 5 4 0.0 12.0050001144 3.17199993134 1.39300000668
323 5 4 0.0 10.4399995804 3.09200000763 0.577000021935
324 5 4 0.0 18.2280006409 -1.71800005436 -4.13199996948
325 5 4 0.0 18.5559997559 -2.87599992752 -2.83699989319
326 5 4 0.0 10.0209999084 5.51499986649 0.861000001431
327 5 4 0.0 20.125 -4.29400014877 -4.38800001144
328 5 4 0.0 17.4150009155 -3.53999996185 -5.60400009155
329 5 4 0.0 17.6879997253 -4.71400022507 -4.3220000267
330 5 4 0.0 9.34899997711 3.91400003433 2.69899988174
331 5 4 0.0 10.9399995804 4.11000013351 3.42700004578
332 5 4 0.0 19.061000824 -6.03299999237 -5.80100011826
333 5 4 0.0 18.8540000916 -4.88199996948 -7.11600017548
334 5 4 0.0 12.4779996872 5.98799991608 2.64599990845
335 5 4 0.0 12.4720001221 5.25899982452 1.05099999905
336 5 3 0.0 15.9890003204 0.21099999547 -3.59500002861
337 5 3 0.0 16.4479999542 0.731000006199 -1.96300005913
338 5 3 0.0 17.6459999084 0.00200000009499 -3.0
339 5 3 0.0 9.54100036621 -0.800000011921 2.125
340 5 3 0.0 10.6870002747 -1.67900002003 1.1210000515
341 5 3 0.0 11.1870002747 -1.08399999142 2.71600008011
342 5 4 0.0 11.3059997559 7.5640001297 0.31400001049
343 5 4 0.0 13.0389995575 7.27699995041 0.349000006914
344 5 4 0.0 21.5629997253 -5.75199985504 -5.97800016403
345 5 4 0.0 21.311000824 -4.67000007629 -7.35400009155
346 5 3 0.0 9.57400035858 7.48999977112 2.21900010109
347 5 3 0.0 10.1610002518 6.6779999733 3.68899989128
348 5 3 0.0 20.1550006866 -1.9090000391 -5.08900022507
349 5 3 0.0 21.1420001984 -2.86599993706 -6.16400003433
350 5 3 0.0 19.5270004272 -2.35500001907 -6.68699979782
351 5 3 0.0 8.67300033569 6.14099979401 2.89199995995
352 5 4 0.0 20.3479995728 -7.5640001297 -7.21899986267
353 5 4 0.0 20.1340007782 -6.48400020599 -8.59200000763
354 5 4 0.0 11.5069999695 8.57100009918 2.65199995041
355 5 4 0.0 13.2419996262 8.31900024414 2.58200001717
356 5 4 0.0 11.6780004501 10.0129995346 0.559000015259
357 5 4 0.0 22.8349990845 -7.40199995041 -7.46500015259
358 5 3 0.0 21.563999176 -9.25199985504 -8.52600002289
359 5 3 0.0 21.3500003815 -8.28499984741 -9.9969997406
360 5 3 0.0 22.9699993134 -8.80900001526 -9.5030002594
361 5 3 0.0 22.1840000153 -5.76999998093 -9.97799968719
362 5 3 0.0 23.1100006104 -5.22100019455 -8.56900024414
363 5 3 0.0 23.7670001984 -6.47700023651 -9.61400032043
364 5 3 0.0 11.4829998016 10.9899997711 2.82299995422
365 5 3 0.0 12.5260000229 11.9870004654 1.80200004578
366 5 3 0.0 13.2430000305 10.9270000458 3.02900004387
367 5 3 0.0 13.9320001602 10.9759998322 0.0320000015199
368 5 3 0.0 14.6859998703 9.80500030518 1.12699997425
369 5 3 0.0 13.857000351 9.25500011444 -0.340000003576
370 6 2 0.0 11.0430002213 0.47499999404 1.19500005245
371 6 2 0.0 16.2140007019 -1.43299996853 -2.1779999733
372 6 2 0.0 14.7349996567 -1.48699998856 -1.72800004482
373 6 2 0.0 12.5430002213 0.45300000906 0.834999978542
374 6 2 0.0 10.6960000992 1.63499999046 2.15599989891
375 6 2 0.0 16.4519996643 -2.54099988937 -3.23099994659
376 6 2 0.0 12.920999527 -0.634999990463 -0.177000001073
377 6 2 0.0 14.373000145 -0.469999998808 -0.64099997282
378 6 2 0.0 17.9090003967 -2.66700005531 -3.69600009918
379 6 2 0.0 10.9340000153 3.02600002289 1.5529999733
380 6 2 0.0 10.4930000305 5.54799985886 1.85199999809
381 6 2 0.0 19.5090007782 -3.99099993706 -5.24499988556
382 6 2 0.0 10.4010000229 4.132999897 2.47199988365
383 6 2 0.0 18.0599994659 -3.77300000191 -4.74700021744
384 6 2 0.0 19.5049991608 -5.14699983597 -6.27299976349
385 6 2 0.0 11.9610004425 5.99800014496 1.6779999733
386 6 1 0.0 10.5939998627 -0.847999989986 1.8259999752
387 6 1 0.0 16.5909996033 -0.0480000004172 -2.71799993515
388 6 2 0.0 12.1479997635 7.35599994659 0.98299998045
389 6 2 0.0 20.8899993896 -5.52099990845 -6.81199979782
390 6 1 0.0 9.68500041962 6.52099990845 2.71499991417
391 6 1 0.0 20.1119995117 -2.71099996567 -5.83199977875
392 6 2 0.0 12.3559999466 8.51700019836 1.96399998665
393 6 2 0.0 20.8059997559 -6.72499990463 -7.757999897
394 6 2 0.0 22.1730003357 -7.17399978638 -8.30900001526
395 6 2 0.0 12.5109996796 9.87899971008 1.25999999046
396 6 1 0.0 22.0030002594 -8.45300006866 -9.13300037384
397 6 1 0.0 22.841999054 -6.09800004959 -9.16600036621
398 6 1 0.0 12.4390001297 11.0100002289 2.28999996185
399 6 1 0.0 13.8210000992 9.98099994659 0.476999998093
400 6 4 0.0 10.4659996033 0.615000009537 0.270999997854
401 6 4 0.0 16.8470001221 -1.64300000668 -1.30700004101
402 6 4 0.0 14.0830001831 -1.33000004292 -2.59599995613
403 6 4 0.0 14.517999649 -2.49499988556 -1.35099995136
404 6 4 0.0 12.8219995499 1.42100000381 0.402999997139
405 6 4 0.0 13.1420001984 0.328999996185 1.74500000477
406 6 4 0.0 16.1369991302 -3.5039999485 -2.80900001526
407 6 4 0.0 15.8109998703 -2.35599994659 -4.10300016403
408 6 4 0.0 9.63799953461 1.5529999733 2.43600010872
409 6 4 0.0 11.2749996185 1.53600001335 3.08200001717
410 6 4 0.0 14.4989995956 0.54699999094 -1.02699995041
411 6 4 0.0 15.0489997864 -0.583999991417 0.215000003576
412 6 4 0.0 12.7989997864 -1.6289999485 0.268999993801
413 6 4 0.0 12.251999855 -0.578999996185 -1.04299998283
414 6 4 0.0 12.0050001144 3.17199993134 1.39300000668
415 6 4 0.0 10.4399995804 3.09200000763 0.577000021935
416 6 4 0.0 18.2280006409 -1.71800005436 -4.13199996948
417 6 4 0.0 18.5559997559 -2.87599992752 -2.83699989319
418 6 4 0.0 10.0209999084 5.51499986649 0.861000001431
419 6 4 0.0 20.125 -4.29400014877 -4.38800001144
420 6 4 0.0 17.4150009155 -3.53999996185 -5.60400009155
421 6 4 0.0 17.6879997253 -4.71400022507 -4.3220000267
422 6 4 0.0 9.34899997711 3.91400003433 2.69899988174
423 6 4 0.0 10.9399995804 4.11000013351 3.42700004578
424 6 4 0.0 19.061000824 -6.03299999237 -5.80100011826
425 6 4 0.0 18.8540000916 -4.88199996948 -7.11600017548
426 6 4 0.0 12.4779996872 5.98799991608 2.64599990845
427 6 4 0.0 12.4720001221 5.25899982452 1.05099999905
428 6 3 0.0 15.9890003204 0.21099999547 -3.59500002861
429 6 3 0.0 16.4479999542 0.731000006199 -1.96300005913
430 6 3 0.0 17.6459999084 0.00200000009499 -3.0
431 6 3 0.0 9.54100036621 -0.800000011921 2.125
432 6 3 0.0 10.6870002747 -1.67900002003 1.1210000515
433 6 3 0.0 11.1870002747 -1.08399999142 2.71600008011
434 6 4 0.0 11.3059997559 7.5640001297 0.31400001049
435 6 4 0.0 13.0389995575 7.27699995041 0.349000006914
436 6 4 0.0 21.5629997253 -5.75199985504 -5.97800016403
437 6 4 0.0 21.311000824 -4.67000007629 -7.35400009155
438 6 3 0.0 9.57400035858 7.48999977112 2.21900010109
439 6 3 0.0 10.1610002518 6.6779999733 3.68899989128
440 6 3 0.0 20.1550006866 -1.9090000391 -5.08900022507
441 6 3 0.0 21.1420001984 -2.86599993706 -6.16400003433
442 6 3 0.0 19.5270004272 -2.35500001907 -6.68699979782
443 6 3 0.0 8.67300033569 6.14099979401 2.89199995995
444 6 4 0.0 20.3479995728 -7.5640001297 -7.21899986267
445 6 4 0.0 20.1340007782 -6.48400020599 -8.59200000763
446 6 4 0.0 11.5069999695 8.57100009918 2.65199995041
447 6 4 0.0 13.2419996262 8.31900024414 2.58200001717
448 6 4 0.0 11.6780004501 10.0129995346 0.559000015259
449 6 4 0.0 22.8349990845 -7.40199995041 -7.46500015259
450 6 3 0.0 21.563999176 -9.25199985504 -8.52600002289
451 6 3 0.0 21.3500003815 -8.28499984741 -9.9969997406
452 6 3 0.0 22.9699993134 -8.80900001526 -9.5030002594
453 6 3 0.0 22.1840000153 -5.76999998093 -9.97799968719
454 6 3 0.0 23.1100006104 -5.22100019455 -8.56900024414
455 6 3 0.0 23.7670001984 -6.47700023651 -9.61400032043
456 6 3 0.0 11.4829998016 10.9899997711 2.82299995422
457 6 3 0.0 12.5260000229 11.9870004654 1.80200004578
458 6 3 0.0 13.2430000305 10.9270000458 3.02900004387
459 6 3 0.0 13.9320001602 10.9759998322 0.0320000015199
460 6 3 0.0 14.6859998703 9.80500030518 1.12699997425
461 6 3 0.0 13.857000351 9.25500011444 -0.340000003576
462 7 2 0.0 11.0430002213 0.47499999404 1.19500005245
463 7 2 0.0 16.2140007019 -1.43299996853 -2.1779999733
464 7 2 0.0 14.7349996567 -1.48699998856 -1.72800004482
465 7 2 0.0 12.5430002213 0.45300000906 0.834999978542
466 7 2 0.0 10.6960000992 1.63499999046 2.15599989891
467 7 2 0.0 16.4519996643 -2.54099988937 -3.23099994659
468 7 2 0.0 12.920999527 -0.634999990463 -0.177000001073
469 7 2 0.0 14.373000145 -0.469999998808 -0.64099997282
470 7 2 0.0 17.9090003967 -2.66700005531 -3.69600009918
471 7 2 0.0 10.9340000153 3.02600002289 1.5529999733
472 7 2 0.0 10.4930000305 5.54799985886 1.85199999809
473 7 2 0.0 19.5090007782 -3.99099993706 -5.24499988556
474 7 2 0.0 10.4010000229 4.132999897 2.47199988365
475 7 2 0.0 18.0599994659 -3.77300000191 -4.74700021744
476 7 2 0.0 19.5049991608 -5.14699983597 -6.27299976349
477 7 2 0.0 11.9610004425 5.99800014496 1.6779999733
478 7 1 0.0 10.5939998627 -0.847999989986 1.8259999752
479 7 1 0.0 16.5909996033 -0.0480000004172 -2.71799993515
480 7 2 0.0 12.1479997635 7.35599994659 0.98299998045
481 7 2 0.0 20.8899993896 -5.52099990845 -6.81199979782
482 7 1 0.0 9.68500041962 6.52099990845 2.71499991417
483 7 1 0.0 20.1119995117 -2.71099996567 -5.83199977875
484 7 2 0.0 12.3559999466 8.51700019836 1.96399998665
485 7 2 0.0 20.8059997559 -6.72499990463 -7.757999897
486 7 2 0.0 22.1730003357 -7.17399978638 -8.30900001526
487 7 2 0.0 12.5109996796 9.87899971008 1.25999999046
488 7 1 0.0 22.0030002594 -8.45300006866 -9.13300037384
489 7 1 0.0 22.841999054 -6.09800004959 -9.16600036621
490 7 1 0.0 12.4390001297 11.0100002289 2.28999996185
491 7 1 0.0 13.8210000992 9.98099994659 0.476999998093
492 7 4 0.0 10.4659996033 0.615000009537 0.270999997854
493 7 4 0.0 16.8470001221 -1.64300000668 -1.30700004101
494 7 4 0.0 14.0830001831 -1.33000004292 -2.59599995613
495 7 4 0.0 14.517999649 -2.49499988556 -1.35099995136
496 7 4 0.0 12.8219995499 1.42100000381 0.402999997139
497 7 4 0.0 13.1420001984 0.328999996185 1.74500000477
498 7 4 0.0 16.1369991302 -3.5039999485 -2.80900001526
499 7 4 0.0 15.8109998703 -2.35599994659 -4.10300016403
500 7 4 0.0 9.63799953461 1.5529999733 2.43600010872
501 7 4 0.0 11.2749996185 1.53600001335 3.08200001717
502 7 4 0.0 14.4989995956 0.54699999094 -1.02699995041
503 7 4 0.0 15.0489997864 -0.583999991417 0.215000003576
504 7 4 0.0 12.7989997864 -1.6289999485 0.268999993801
505 7 4 0.0 12.251999855 -0.578999996185 -1.04299998283
506 7 4 0.0 12.0050001144 3.17199993134 1.39300000668
507 7 4 0.0 10.4399995804 3.09200000763 0.577000021935
508 7 4 0.0 18.2280006409 -1.71800005436 -4.13199996948
509 7 4 0.0 18.5559997559 -2.87599992752 -2.83699989319
510 7 4 0.0 10.0209999084 5.51499986649 0.861000001431
511 7 4 0.0 20.125 -4.29400014877 -4.38800001144
512 7 4 0.0 17.4150009155 -3.53999996185 -5.60400009155
513 7 4 0.0 17.6879997253 -4.71400022507 -4.3220000267
514 7 4 0.0 9.34899997711 3.91400003433 2.69899988174
515 7 4 0.0 10.9399995804 4.11000013351 3.42700004578
516 7 4 0.0 19.061000824 -6.03299999237 -5.80100011826
517 7 4 0.0 18.8540000916 -4.88199996948 -7.11600017548
518 7 4 0.0 12.4779996872 5.98799991608 2.64599990845
519 7 4 0.0 12.4720001221 5.25899982452 1.05099999905
520 7 3 0.0 15.9890003204 0.21099999547 -3.59500002861
521 7 3 0.0 16.4479999542 0.731000006199 -1.96300005913
522 7 3 0.0 17.6459999084 0.00200000009499 -3.0
523 7 3 0.0 9.54100036621 -0.800000011921 2.125
524 7 3 0.0 10.6870002747 -1.67900002003 1.1210000515
525 7 3 0.0 11.1870002747 -1.08399999142 2.71600008011
526 7 4 0.0 11.3059997559 7.5640001297 0.31400001049
527 7 4 0.0 13.0389995575 7.27699995041 0.349000006914
528 7 4 0.0 21.5629997253 -5.75199985504 -5.97800016403
529 7 4 0.0 21.311000824 -4.67000007629 -7.35400009155
530 7 3 0.0 9.57400035858 7.48999977112 2.21900010109
531 7 3 0.0 10.1610002518 6.6779999733 3.68899989128
532 7 3 0.0 20.1550006866 -1.9090000391 -5.08900022507
533 7 3 0.0 21.1420001984 -2.86599993706 -6.16400003433
534 7 3 0.0 19.5270004272 -2.35500001907 -6.68699979782
535 7 3 0.0 8.67300033569 6.14099979401 2.89199995995
536 7 4 0.0 20.3479995728 -7.5640001297 -7.21899986267
537 7 4 0.0 20.1340007782 -6.48400020599 -8.59200000763
538 7 4 0.0 11.5069999695 8.57100009918 2.65199995041
539 7 4 0.0 13.2419996262 8.31900024414 2.58200001717
540 7 4 0.0 11.6780004501 10.0129995346 0.559000015259
541 7 4 0.0 22.8349990845 -7.40199995041 -7.46500015259
542 7 3 0.0 21.563999176 -9.25199985504 -8.52600002289
543 7 3 0.0 21.3500003815 -8.28499984741 -9.9969997406
544 7 3 0.0 22.9699993134 -8.80900001526 -9.5030002594