/*--------------------------------*- C++ -*----------------------------------*\
| =========                 |                                                 |
| \\      /  F ield         | OpenFOAM: The Open Source CFD Toolbox           |
|  \\    /   O peration     | Version:  3.0.1                                 |
|   \\  /    A nd           | Web:      www.OpenFOAM.org                      |
|    \\/     M anipulation  |                                                 |
\*---------------------------------------------------------------------------*/
FoamFile
{
    version     2.0;
    format      ascii;
    class       volScalarField;
    location    "300";
    object      p;
}
// * * * * * * * * * * * * * * * * * * * * * * * * * * * * * * * * * * * * * //

dimensions      [0 2 -2 0 0 0 0];

internalField   nonuniform List<scalar> 
480
(
-6.1999467e-08
-5.7289304e-08
4.4335717e-08
3.7539831e-08
-7.0284206e-08
-6.0552929e-08
4.9519345e-08
4.5483363e-08
-6.2031604e-08
-5.8832891e-08
5.1394514e-08
5.0189003e-08
-4.8091563e-08
-5.2036487e-08
4.8795055e-08
4.9553597e-08
-3.7978848e-08
-4.3450079e-08
4.4353875e-08
4.5768366e-08
-3.0759979e-08
-3.5807389e-08
4.0490642e-08
4.1701953e-08
-2.5016709e-08
-2.9116369e-08
3.6903998e-08
3.7743864e-08
-2.0312128e-08
-2.3405239e-08
3.3629649e-08
3.4138274e-08
-1.6436726e-08
-1.8668963e-08
3.0794139e-08
3.1117824e-08
-1.3218677e-08
-1.4810037e-08
2.8459743e-08
2.8768179e-08
-1.0555e-08
-1.1722569e-08
2.6653421e-08
2.7084981e-08
-8.3882072e-09
-9.3257497e-09
2.5365353e-08
2.6010515e-08
-6.6835466e-09
-7.54817e-09
2.4545041e-08
2.5451307e-08
-5.4192133e-09
-6.330616e-09
2.4109033e-08
2.5295727e-08
-4.5815392e-09
-5.6283535e-09
2.3954061e-08
2.5432019e-08
-4.1628556e-09
-5.4093902e-09
2.3969804e-08
2.5731468e-08
-4.158969e-09
-5.6515626e-09
2.4050317e-08
2.6087202e-08
-4.5658162e-09
-6.3390667e-09
2.4101592e-08
2.6410985e-08
-5.3765107e-09
-7.4587246e-09
2.4045833e-08
2.6632651e-08
-6.5797598e-09
-8.9964173e-09
2.3823259e-08
2.6695917e-08
-8.1583868e-09
-1.0932539e-08
2.3392493e-08
2.6573854e-08
-1.0088448e-08
-1.3246912e-08
2.2729132e-08
2.6252067e-08
-1.2338735e-08
-1.5912343e-08
2.182355e-08
2.5728642e-08
-1.4870869e-08
-1.8894538e-08
2.0679055e-08
2.5012662e-08
-1.7639885e-08
-2.2152447e-08
1.9309793e-08
2.4122214e-08
-2.0595187e-08
-2.5638932e-08
1.7738616e-08
2.3082455e-08
-2.3681767e-08
-2.9301847e-08
1.5995008e-08
2.1923724e-08
-2.6841608e-08
-3.3085929e-08
1.4113148e-08
2.0679762e-08
-3.001514e-08
-3.6931848e-08
1.2130156e-08
1.9386024e-08
-3.3142818e-08
-4.0779439e-08
1.008445e-08
1.8078128e-08
-3.6166646e-08
-4.4568804e-08
8.0142936e-09
1.6790421e-08
-3.9031609e-08
-4.8241574e-08
5.9565373e-09
1.5554721e-08
-4.1686984e-08
-5.1742155e-08
3.9455493e-09
1.4399247e-08
-4.4087479e-08
-5.5018847e-08
2.012334e-09
1.334773e-08
-4.6194179e-08
-5.8024713e-08
1.8384846e-10
1.2418699e-08
-4.797529e-08
-6.071851e-08
-1.5175364e-09
1.1625015e-08
-4.9406649e-08
-6.3065384e-08
-3.0743422e-09
1.0973614e-08
-5.0472012e-08
-6.5037251e-08
-4.4741279e-09
1.0465472e-08
-5.1163131e-08
-6.6613108e-08
-5.7095218e-09
1.0095766e-08
-5.1479632e-08
-6.777921e-08
-6.7780803e-09
9.8542467e-09
-5.1428712e-08
-6.8529122e-08
-7.6820348e-09
9.7257873e-09
-5.1024673e-08
-6.8863679e-08
-8.4279361e-09
9.6911199e-09
-5.0288334e-08
-6.8790888e-08
-9.0262145e-09
9.7277198e-09
-4.9246354e-08
-6.8325808e-08
-9.4906648e-09
9.8109088e-09
-4.7930418e-08
-6.7490452e-08
-9.8378722e-09
9.9149893e-09
-4.6376421e-08
-6.6313738e-08
-1.008657e-08
1.0014723e-08
-4.4623697e-08
-6.4831543e-08
-1.0256941e-08
1.0086848e-08
-4.2714177e-08
-6.3086881e-08
-1.0369835e-08
1.0111833e-08
-4.0691632e-08
-6.1130237e-08
-1.0445903e-08
1.0075829e-08
-3.8601027e-08
-5.902009e-08
-1.0504591e-08
9.972829e-09
-3.6488007e-08
-5.682358e-08
-1.0562998e-08
9.8069897e-09
-3.43986e-08
-5.4617353e-08
-1.0634561e-08
9.595087e-09
-3.2379199e-08
-5.2488778e-08
-1.0727576e-08
9.369245e-09
-3.0476889e-08
-5.0537979e-08
-1.0843614e-08
9.1802595e-09
-2.873987e-08
-4.8878786e-08
-1.097621e-08
9.0994768e-09
-2.7217515e-08
-4.7630766e-08
-1.1110506e-08
9.2111356e-09
-2.5961397e-08
-4.6908623e-08
-1.1223008e-08
9.6010247e-09
-2.5035881e-08
-4.6903836e-08
-1.1272216e-08
1.0436957e-08
-2.4539054e-08
-4.8137874e-08
-1.1178306e-08
1.2225685e-08
-2.4558563e-08
-5.1100912e-08
-1.0860932e-08
1.5448311e-08
-5.0865981e-08
-4.7614564e-08
4.034386e-08
4.0825488e-08
-5.3031184e-08
-5.3450084e-08
4.5319068e-08
4.6888553e-08
-5.1896388e-08
-5.4858105e-08
4.7719964e-08
4.9527569e-08
-4.577027e-08
-5.03851e-08
4.5263984e-08
4.6780106e-08
-3.8407285e-08
-4.3383081e-08
4.113338e-08
4.1779807e-08
-3.2189234e-08
-3.6670526e-08
3.7530916e-08
3.7090625e-08
-2.6745418e-08
-3.0496074e-08
3.4178584e-08
3.2882469e-08
-2.2005797e-08
-2.5056078e-08
3.115647e-08
2.9314872e-08
-1.7941443e-08
-2.0449677e-08
2.8582092e-08
2.6516579e-08
-1.4482262e-08
-1.6644534e-08
2.6505488e-08
2.4492923e-08
-1.1578766e-08
-1.3571265e-08
2.4948058e-08
2.3187273e-08
-9.1996477e-09
-1.1153058e-08
2.3893427e-08
2.2508244e-08
-7.325931e-09
-9.3236855e-09
2.3282891e-08
2.2340497e-08
-5.9451539e-09
-8.0311501e-09
2.3029513e-08
2.2562254e-08
-5.0350453e-09
-7.2402554e-09
2.3029618e-08
2.3028257e-08
-4.5726558e-09
-6.9265515e-09
2.3175772e-08
2.3623036e-08
-4.5445715e-09
-7.0718947e-09
2.3366396e-08
2.4242279e-08
-4.937325e-09
-7.6635344e-09
2.351224e-08
2.4799024e-08
-5.7365608e-09
-8.6904732e-09
2.3539981e-08
2.5223019e-08
-6.9254251e-09
-1.0139262e-08
2.3393773e-08
2.5476238e-08
-8.4829959e-09
-1.1997942e-08
2.3034424e-08
2.5524522e-08
-1.0383257e-08
-1.4244178e-08
2.2438591e-08
2.5351268e-08
-1.2594535e-08
-1.6849297e-08
2.1597534e-08
2.4954788e-08
-1.507926e-08
-1.9777929e-08
2.0515027e-08
2.434556e-08
-1.7794165e-08
-2.2988209e-08
1.9205209e-08
2.3543809e-08
-2.0690843e-08
-2.6432363e-08
1.7690537e-08
2.2577198e-08
-2.3716643e-08
-3.0057532e-08
1.5999851e-08
2.1478667e-08
-2.681582e-08
-3.3806154e-08
1.4166573e-08
2.0284445e-08
-2.9930899e-08
-3.7619094e-08
1.2227007e-08
1.9032236e-08
-3.30041e-08
-4.1435883e-08
1.0218825e-08
1.7759575e-08
-3.5978786e-08
-4.5196138e-08
8.1797021e-09
1.6502378e-08
-3.8800887e-08
-4.8840968e-08
6.1460991e-09
1.5293676e-08
-4.1420223e-08
-5.2314256e-08
4.1522074e-09
1.4162536e-08
-4.3791685e-08
-5.5563801e-08
2.2290703e-09
1.3133198e-08
-4.5876235e-08
-5.8542441e-08
4.0388305e-10
1.2224467e-08
-4.7641704e-08
-6.1208683e-08
-1.3005583e-09
1.1449283e-08
-4.9063361e-08
-6.3527355e-08
-2.8661889e-09
1.0814517e-08
-5.0124264e-08
-6.5470144e-08
-4.2798566e-09
1.0320984e-08
-5.0815398e-08
-6.7015899e-08
-5.533385e-09
9.9636545e-09
-5.1135594e-08
-6.815079e-08
-6.6234666e-09
9.7320586e-09
-5.1091272e-08
-6.8868348e-08
-7.5514398e-09
9.6108763e-09
-5.0696003e-08
-6.9169426e-08
-8.3229645e-09
9.5806941e-09
-4.9969941e-08
-6.9062093e-08
-8.9476075e-09
9.6189106e-09
-4.8939109e-08
-6.856151e-08
-9.4383513e-09
9.7008049e-09
-4.7634685e-08
-6.7689831e-08
-9.8110365e-09
9.8008278e-09
-4.6092185e-08
-6.6476154e-08
-1.0083746e-08
9.8939027e-09
-4.435057e-08
-6.4956563e-08
-1.0276117e-08
9.9570361e-09
-4.2451468e-08
-6.3174307e-08
-1.0408572e-08
9.9710636e-09
-4.0438403e-08
-6.1180131e-08
-1.0501441e-08
9.9225976e-09
-3.8356131e-08
-5.9032786e-08
-1.0573974e-08
9.8061707e-09
-3.6250117e-08
-5.6799706e-08
-1.0643182e-08
9.6265295e-09
-3.4166229e-08
-5.4557843e-08
-1.0722526e-08
9.4010192e-09
-3.215073e-08
-5.2394899e-08
-1.0820421e-08
9.1621968e-09
-3.025061e-08
-5.0411368e-08
-1.0938667e-08
8.9609616e-09
-2.8514043e-08
-4.8721501e-08
-1.1071182e-08
8.8681299e-09
-2.699055e-08
-4.7445385e-08
-1.1203835e-08
8.9663978e-09
-2.5732191e-08
-4.6698722e-08
-1.1314679e-08
9.3387841e-09
-2.4803606e-08
-4.6674924e-08
-1.1365559e-08
1.014881e-08
-2.430005e-08
-4.7900439e-08
-1.1280865e-08
1.1892361e-08
-2.4308789e-08
-5.0859106e-08
-1.0983605e-08
1.5048889e-08
)
;

boundaryField
{
    movingWall
    {
        type            zeroGradient;
    }
    CPLReceiveMD
    {
        type            zeroGradient;
    }
    streamwiseIn
    {
        type            cyclic;
    }
    streamwiseOut
    {
        type            cyclic;
    }
    front
    {
        type            cyclic;
    }
    back
    {
        type            cyclic;
    }
    procBoundary0to1
    {
        type            processor;
        value           nonuniform List<scalar> 
240
(
-4.3639302e-08
-4.3595765e-08
4.6548498e-08
5.1429051e-08
-4.6757172e-08
-4.9488368e-08
5.0780708e-08
5.6914295e-08
-4.701461e-08
-5.0943324e-08
5.1920269e-08
5.8404166e-08
-4.2741991e-08
-4.7000076e-08
4.8704244e-08
5.4795073e-08
-3.6615347e-08
-4.0436104e-08
4.3791325e-08
4.8830981e-08
-3.1220176e-08
-3.4150663e-08
3.9614033e-08
4.3283816e-08
-2.6306346e-08
-2.8338878e-08
3.5864604e-08
3.8404047e-08
-2.1891169e-08
-2.313985e-08
3.2551451e-08
3.4264339e-08
-1.8020647e-08
-1.8675917e-08
2.9766025e-08
3.096794e-08
-1.4678787e-08
-1.495135e-08
2.7538148e-08
2.8502295e-08
-1.1837165e-08
-1.1923015e-08
2.5864805e-08
2.6795251e-08
-9.4777444e-09
-9.5391855e-09
2.471424e-08
2.5744779e-08
-7.5832148e-09
-7.7513462e-09
2.4017953e-08
2.52283e-08
-6.1317292e-09
-6.5152405e-09
2.3689226e-08
2.5105054e-08
-5.122103e-09
-5.7881966e-09
2.3624267e-08
2.5263708e-08
-4.56765e-09
-5.5412369e-09
2.3713904e-08
2.5584393e-08
-4.4588771e-09
-5.7560961e-09
2.3853975e-08
2.5959817e-08
-4.7860406e-09
-6.4190254e-09
2.3952518e-08
2.6301378e-08
-5.5372086e-09
-7.5179772e-09
2.3933854e-08
2.6545907e-08
-6.6964668e-09
-9.0418617e-09
2.3739867e-08
2.663118e-08
-8.2429233e-09
-1.0968909e-08
2.3330723e-08
2.6526301e-08
-1.0149611e-08
-1.3276303e-08
2.2683495e-08
2.6217421e-08
-1.2382959e-08
-1.5936046e-08
2.1789906e-08
2.5703537e-08
-1.4902827e-08
-1.8913587e-08
2.0654297e-08
2.4994522e-08
-1.766296e-08
-2.2167765e-08
1.9291604e-08
2.4109114e-08
-2.0611817e-08
-2.5651314e-08
1.7725283e-08
2.307298e-08
-2.3693702e-08
-2.9311522e-08
1.5985277e-08
2.1916847e-08
-2.6850111e-08
-3.3093052e-08
1.4106094e-08
2.0674742e-08
-3.002114e-08
-3.6937041e-08
1.2125083e-08
1.9382328e-08
-3.3146999e-08
-4.0783226e-08
1.0080835e-08
1.8075372e-08
-3.6169507e-08
-4.4571579e-08
8.0117459e-09
1.6788333e-08
-3.9033518e-08
-4.8243628e-08
5.9547679e-09
1.5553109e-08
-4.1688209e-08
-5.1743703e-08
3.9443442e-09
1.4397973e-08
-4.4088215e-08
-5.5020043e-08
2.0115363e-09
1.33467e-08
-4.6194568e-08
-5.8025594e-08
1.8334432e-10
1.2417848e-08
-4.7975436e-08
-6.0719168e-08
-1.5178317e-09
1.1624299e-08
-4.9406631e-08
-6.3065886e-08
-3.0744913e-09
1.0973002e-08
-5.0471887e-08
-6.5037641e-08
-4.4741767e-09
1.0464943e-08
-5.116294e-08
-6.6613416e-08
-5.7095037e-09
1.0095306e-08
-5.1479406e-08
-6.7779458e-08
-6.7780198e-09
9.8538448e-09
-5.1428472e-08
-6.8529324e-08
-7.6819492e-09
9.7254366e-09
-5.1024434e-08
-6.8863846e-08
-8.4278379e-09
9.6908147e-09
-5.0288105e-08
-6.8791026e-08
-9.0261124e-09
9.7274555e-09
-4.9246142e-08
-6.8325924e-08
-9.4905646e-09
9.8106818e-09
-4.7930227e-08
-6.7490548e-08
-9.8377777e-09
9.9147961e-09
-4.6376252e-08
-6.6313818e-08
-1.0086483e-08
1.001456e-08
-4.4623552e-08
-6.4831609e-08
-1.0256864e-08
1.0086712e-08
-4.2714053e-08
-6.3086935e-08
-1.0369768e-08
1.0111721e-08
-4.0691529e-08
-6.1130282e-08
-1.0445846e-08
1.0075739e-08
-3.8600943e-08
-5.9020125e-08
-1.0504543e-08
9.9727571e-09
-3.648794e-08
-5.6823608e-08
-1.0562958e-08
9.8069335e-09
-3.4398547e-08
-5.4617375e-08
-1.0634529e-08
9.5950441e-09
-3.2379159e-08
-5.2488794e-08
-1.0727551e-08
9.369213e-09
-3.0476859e-08
-5.0537991e-08
-1.0843595e-08
9.1802362e-09
-2.8739849e-08
-4.8878794e-08
-1.0976196e-08
9.0994608e-09
-2.7217501e-08
-4.7630772e-08
-1.1110496e-08
9.2111254e-09
-2.5961388e-08
-4.6908627e-08
-1.1223001e-08
9.6010186e-09
-2.5035876e-08
-4.6903838e-08
-1.1272211e-08
1.0436954e-08
-2.4539051e-08
-4.8137876e-08
-1.1178303e-08
1.2225684e-08
-2.4558561e-08
-5.1100913e-08
-1.086093e-08
1.5448311e-08
)
;
    }
    procBoundary0to1throughfront
    {
        type            processorCyclic;
        value           nonuniform List<scalar> 
240
(
-4.9876014e-08
-5.1938474e-08
-5.0720458e-08
-4.4569403e-08
-3.7266468e-08
-3.1144415e-08
-2.5843981e-08
-2.1271953e-08
-1.7369693e-08
-1.4053278e-08
-1.1264917e-08
-8.9752673e-09
-7.1682914e-09
-5.836128e-09
-4.9650163e-09
-4.5299758e-09
-4.5204707e-09
-4.9253886e-09
-5.7322266e-09
-6.9255417e-09
-8.4854662e-09
-1.0386762e-08
-1.2598278e-08
-1.5082798e-08
-1.7797273e-08
-2.0693439e-08
-2.3718729e-08
-2.6817432e-08
-2.9932094e-08
-3.3004937e-08
-3.5979325e-08
-3.8801184e-08
-4.1420326e-08
-4.3791638e-08
-4.5876077e-08
-4.7641465e-08
-4.9063068e-08
-5.0123939e-08
-5.0815056e-08
-5.113525e-08
-5.1090936e-08
-5.0695684e-08
-4.9969644e-08
-4.8938837e-08
-4.763444e-08
-4.6091968e-08
-4.4350381e-08
-4.2451306e-08
-4.0438266e-08
-3.8356017e-08
-3.6250024e-08
-3.4166155e-08
-3.2150672e-08
-3.0250565e-08
-2.851401e-08
-2.6990526e-08
-2.5732174e-08
-2.4803596e-08
-2.4300043e-08
-2.4308784e-08
-4.6616507e-08
-5.2343331e-08
-5.3704325e-08
-4.9225937e-08
-4.2260914e-08
-3.5634415e-08
-2.9570074e-08
-2.4249994e-08
-1.9762607e-08
-1.6075967e-08
-1.3113239e-08
-1.0792539e-08
-9.0447067e-09
-7.8185995e-09
-7.0815523e-09
-6.809506e-09
-6.9865413e-09
-7.601924e-09
-8.6464129e-09
-1.0108402e-08
-1.1976368e-08
-1.4229284e-08
-1.6839071e-08
-1.9770897e-08
-2.2983314e-08
-2.6428853e-08
-3.0055169e-08
-3.380458e-08
-3.7618072e-08
-4.143524e-08
-4.5195752e-08
-4.8840754e-08
-5.2314152e-08
-5.5563769e-08
-5.8542484e-08
-6.1208775e-08
-6.3527476e-08
-6.547028e-08
-6.7016041e-08
-6.815093e-08
-6.8868484e-08
-6.9169554e-08
-6.9062211e-08
-6.8561618e-08
-6.7689928e-08
-6.647624e-08
-6.4956638e-08
-6.3174372e-08
-6.1180186e-08
-5.9032833e-08
-5.6799745e-08
-5.4557875e-08
-5.2394924e-08
-5.0411388e-08
-4.8721516e-08
-4.7445396e-08
-4.6698731e-08
-4.667493e-08
-4.7900444e-08
-5.085911e-08
4.1991369e-08
4.7071985e-08
4.9470554e-08
4.6893962e-08
4.2577621e-08
3.8762296e-08
3.5197788e-08
3.1980124e-08
2.9235467e-08
2.7015391e-08
2.5335432e-08
2.4176376e-08
2.3486499e-08
2.3173522e-08
2.3129478e-08
2.3243559e-08
2.3411362e-08
2.3541323e-08
2.3558265e-08
2.340485e-08
2.3040828e-08
2.2442053e-08
2.1599208e-08
2.0515666e-08
1.9205289e-08
1.7690349e-08
1.599956e-08
1.4166273e-08
1.2226747e-08
1.0218628e-08
8.1795759e-09
6.1460409e-09
4.1522099e-09
2.2291237e-09
4.0397633e-10
-1.3004349e-09
-2.8660443e-09
-4.2796983e-09
-5.5332197e-09
-6.6232995e-09
-7.5512755e-09
-8.3228065e-09
-8.9474583e-09
-9.438213e-09
-9.8109102e-09
-1.0083633e-08
-1.0276017e-08
-1.0408484e-08
-1.0501366e-08
-1.057391e-08
-1.0643129e-08
-1.0722482e-08
-1.0820386e-08
-1.0938639e-08
-1.107116e-08
-1.1203818e-08
-1.1314666e-08
-1.1365549e-08
-1.1280857e-08
-1.0983599e-08
4.1836386e-08
4.8010634e-08
5.0732635e-08
4.8030384e-08
4.3003504e-08
3.8233278e-08
3.3907093e-08
3.0203924e-08
2.7267808e-08
2.5114284e-08
2.3692418e-08
2.2913072e-08
2.2661202e-08
2.2808925e-08
2.3214209e-08
2.3760546e-08
2.4342364e-08
2.4871092e-08
2.527543e-08
2.551368e-08
2.5551172e-08
2.5370174e-08
2.4968152e-08
2.4354972e-08
2.3550411e-08
2.2581801e-08
2.1481845e-08
2.0286604e-08
1.9033663e-08
1.7760476e-08
1.6502897e-08
1.5293919e-08
1.4162581e-08
1.3133102e-08
1.2224272e-08
1.1449021e-08
1.0814214e-08
1.032066e-08
9.963323e-09
9.7317321e-09
9.6105632e-09
9.5804003e-09
9.6186402e-09
9.7005602e-09
9.8006098e-09
9.8937115e-09
9.9568706e-09
9.9709226e-09
9.9224793e-09
9.806073e-09
9.6264501e-09
9.4009557e-09
9.1621469e-09
8.9609231e-09
8.868101e-09
8.9663769e-09
9.3387696e-09
1.01488e-08
1.1892355e-08
1.5048884e-08
)
;
    }
}


// ************************************************************************* //
