/*--------------------------------*- C++ -*----------------------------------*\
| =========                 |                                                 |
| \\      /  F ield         | OpenFOAM: The Open Source CFD Toolbox           |
|  \\    /   O peration     | Version:  3.0.1                                 |
|   \\  /    A nd           | Web:      www.OpenFOAM.org                      |
|    \\/     M anipulation  |                                                 |
\*---------------------------------------------------------------------------*/
FoamFile
{
    version     2.0;
    format      ascii;
    class       surfaceScalarField;
    location    "300";
    object      phi;
}
// * * * * * * * * * * * * * * * * * * * * * * * * * * * * * * * * * * * * * //

dimensions      [0 3 -1 0 0 0 0];

internalField   nonuniform List<scalar> 
1072
(
0.025044669
2.6872336e-07
-1.1081156e-09
0.025044775
-8.5053179e-08
-4.9141505e-09
0.025044672
1.1945468e-07
1.3840543e-09
1.0953113e-07
-2.1375877e-09
-0.088559085
8.2732947e-08
4.9174332e-09
-0.088558907
-2.4739263e-07
-3.4031777e-09
-0.088559091
2.9767392e-07
2.6914458e-09
2.8486687e-07
-7.1270836e-10
-0.11126318
-6.6940855e-08
7.8095619e-09
-0.11126305
-3.6724282e-07
-9.5149848e-10
-0.11126319
4.2846192e-07
3.2346757e-09
4.2423352e-07
8.0358409e-10
-0.10343857
-4.6885131e-08
9.7358557e-09
-0.10343861
-3.0927849e-07
7.3150249e-10
-0.10343858
3.7776574e-07
3.513856e-09
3.8965222e-07
2.3093032e-09
-0.081905468
1.4633966e-07
9.0524616e-09
-0.08190569
-7.6725189e-08
1.6234674e-09
-0.081905479
1.5430358e-07
3.3864759e-09
1.7771774e-07
3.1332327e-09
-0.056895247
4.203806e-07
7.6052008e-09
-0.056895559
2.415284e-07
1.9586253e-09
-0.056895266
-1.4677152e-07
3.1174321e-09
-1.2393556e-07
3.3573836e-09
-0.03370743
6.8625209e-07
6.1996627e-09
-0.033707741
5.5544291e-07
2.0094878e-09
-0.033707455
-4.3634656e-07
2.7871969e-09
-4.2553731e-07
3.2936768e-09
-0.013525566
8.868198e-07
5.060392e-09
-0.013525815
8.046614e-07
1.9167955e-09
-0.013525596
-6.578924e-07
2.4361368e-09
-6.6646686e-07
3.0859551e-09
0.0044633113
1.0077129e-06
4.0177605e-09
0.0044631436
9.7051848e-07
1.773634e-09
0.0044632825
-7.9731249e-07
2.0972131e-09
-8.2762409e-07
2.8145435e-09
0.021514123
1.0620253e-06
3.132719e-09
0.021514027
1.0637215e-06
1.6169433e-09
0.021514097
-8.6792795e-07
1.785423e-09
-9.1915945e-07
2.5205118e-09
0.038695011
1.0707024e-06
2.4211383e-09
0.038694965
1.1053257e-06
1.4761405e-09
0.038694988
-8.9094659e-07
1.5050119e-09
-9.614919e-07
2.2253185e-09
0.056794322
1.0516116e-06
1.8675637e-09
0.056794309
1.1147037e-06
1.3340321e-09
0.056794301
-8.8447802e-07
1.2576913e-09
-9.7334436e-07
1.9413147e-09
0.076400852
1.0169173e-06
1.4445787e-09
0.076400857
1.1057878e-06
1.1946107e-09
0.076400832
-8.609087e-07
1.0442057e-09
-9.6808932e-07
1.6753733e-09
0.097989259
9.7430121e-07
1.1251634e-09
0.097989273
1.0877682e-06
1.0621349e-09
0.097989238
-8.281385e-07
8.6316238e-10
-9.5447372e-07
1.4285121e-09
0.12196981
9.2875779e-07
8.8353612e-10
0.12196983
1.0667998e-06
9.4079711e-10
0.12196979
-7.9137819e-07
7.1174156e-10
-9.3837065e-07
1.2183347e-09
0.14871007
8.8373777e-07
6.9875675e-10
0.14871009
1.0472324e-06
8.3251383e-10
0.14871005
-7.5428365e-07
5.8621717e-10
-9.2393369e-07
1.0340272e-09
0.1785438
8.4159596e-07
5.575915e-10
0.17854381
1.0321616e-06
7.371547e-10
0.17854377
-7.1940479e-07
4.8255892e-10
-9.1414472e-07
8.7377005e-10
0.21177695
8.0369495e-07
4.4940997e-10
0.21177696
1.0235728e-06
6.5395359e-10
0.21177693
-6.8827934e-07
3.9682992e-10
-9.1092414e-07
7.3132796e-10
0.24869472
7.7043519e-07
3.6593433e-10
0.24869472
1.022369e-06
5.8169051e-10
0.24869469
-6.6145667e-07
3.2540724e-10
-9.151257e-07
5.8850085e-10
0.28956979
7.4134783e-07
3.003104e-10
0.28956978
1.028443e-06
5.1806905e-10
0.28956975
-6.3859031e-07
2.6509119e-10
-9.2670575e-07
5.0650237e-10
0.33467072
7.1527966e-07
2.4712716e-10
0.3346707
1.0408215e-06
4.6599666e-10
0.33467068
-6.1861534e-07
2.1351838e-10
-9.4468337e-07
4.297864e-10
0.38426934
6.9062735e-07
2.0226065e-10
0.38426932
1.057892e-06
4.2245225e-10
0.3842693
-5.9998644e-07
1.6903108e-10
-9.6744336e-07
3.6440967e-10
0.43864621
6.6557976e-07
1.6280776e-10
0.43864619
1.0776336e-06
3.8599982e-10
0.43864616
-5.8092435e-07
1.3015198e-10
-9.9295629e-07
3.0954017e-10
0.49809393
6.3833246e-07
1.2689545e-10
0.49809391
1.0978304e-06
3.5529274e-10
0.49809388
-5.5963496e-07
9.5789404e-11
-1.0189893e-06
2.6406694e-10
0.56291844
6.0725446e-07
9.3472205e-11
0.56291842
1.1162425e-06
3.2918346e-10
0.56291839
-5.3448044e-07
6.5161788e-11
-1.0432764e-06
2.2673738e-10
0.63343848
5.7100201e-07
6.2060129e-11
0.63343846
1.1307266e-06
3.0652225e-10
0.63343843
-5.0409755e-07
3.7775007e-11
-1.0636403e-06
1.962691e-10
0.7099837
5.2858495e-07
3.25549e-11
0.70998369
1.1393141e-06
2.8456191e-10
0.70998365
-4.6746785e-07
1.3360793e-11
-1.0780681e-06
1.7143267e-10
0.79289178
4.7939526e-07
5.0691468e-12
0.79289178
1.1402325e-06
2.6973943e-10
0.79289173
-4.2395014e-07
-8.2007991e-12
-1.0847517e-06
1.5110244e-10
0.88250479
4.2321014e-07
-2.0160357e-11
0.8825048
1.1319412e-06
2.5596767e-10
0.88250474
-3.7328528e-07
-2.6916377e-11
-1.0821028e-06
1.3429237e-10
0.97916523
3.6017792e-07
-4.2879463e-11
0.97916524
1.1131196e-06
2.4341256e-10
0.97916518
-3.1558461e-07
-4.2750766e-11
-1.0687545e-06
1.2017549e-10
1.0832117
2.9079458e-07
-6.287654e-11
1.0832117
1.0826631e-06
2.317953e-10
1.0832117
-2.5130832e-07
-5.5669852e-11
-1.043558e-06
1.080848e-10
1.1949745
2.1587531e-07
-8.0016879e-11
1.1949746
1.0396798e-06
2.2084786e-10
1.1949745
-1.812384e-07
-6.5668071e-11
-1.0055812e-06
9.7505246e-11
1.3147713
1.3652306e-07
-9.4255857e-11
1.3147713
9.8349233e-07
2.1031972e-10
1.3147713
-1.0644832e-07
-7.2785237e-11
-9.5411131e-07
8.8071497e-11
1.4429024
5.409447e-08
-1.0563908e-10
1.4429025
9.1364614e-07
2.0029519e-10
1.4429024
-2.8269871e-08
-7.7114058e-11
-8.8866462e-07
7.9556695e-11
1.5796467
-2.98374e-08
-1.1429348e-10
1.5796467
8.2992668e-07
1.9043325e-10
1.5796467
5.17436e-08
-7.8800496e-11
-8.0900326e-07
7.1828919e-11
1.7252569
-1.1352497e-07
-1.2041586e-10
1.725257
7.323813e-07
1.7999652e-10
1.7252569
1.3185865e-07
-7.8043851e-11
-7.1515758e-07
6.4834783e-11
1.879956
-1.9509388e-07
-1.242573e-10
1.8799561
6.2134552e-07
1.6939171e-10
1.879956
2.102092e-07
-7.5090977e-11
-6.0745332e-07
5.8579714e-11
2.0439323
-2.725975e-07
-1.2610373e-10
2.0439325
4.9747381e-07
1.5854008e-10
2.0439324
2.8485107e-07
-7.0225739e-11
-4.8654171e-07
5.310812e-11
2.2173366
-3.4407909e-07
-1.2625884e-10
2.2173368
3.6177125e-07
1.4737438e-10
2.2173367
3.5382427e-07
-6.375981e-11
-3.5343066e-07
4.8485577e-11
2.4002778
-4.0764149e-07
-1.250286e-10
2.4002779
2.1562476e-07
1.3585025e-10
2.4002779
4.1522306e-07
-5.6021686e-11
-2.0951551e-07
4.4783351e-11
2.5928198
-4.6152373e-07
-1.2270871e-10
2.59282
6.0832392e-08
1.239458e-10
2.5928199
4.6727294e-07
-4.7346811e-11
-5.6607682e-08
4.2066115e-11
2.7949787
-5.0418318e-07
-1.1957485e-10
2.7949789
-1.0037072e-07
1.1165916e-10
2.7949788
5.0841343e-07
-3.8067285e-11
1.0304009e-07
4.0382087e-11
3.0067201
-5.3438056e-07
-1.1593388e-10
3.0067202
-2.6529087e-07
9.9006377e-11
3.0067202
5.373838e-07
-2.850323e-11
2.6671284e-07
3.983595e-11
3.2279566
-5.5126544e-07
-1.1189137e-10
3.2279568
-4.3075988e-07
8.6019952e-11
3.2279568
5.5330877e-07
-1.895453e-11
4.3121843e-07
4.0259827e-11
3.4585467
-5.5445591e-07
-1.0771096e-10
3.4585468
-5.9312584e-07
7.2747745e-11
3.4585468
5.5577918e-07
-9.6952669e-12
5.9287856e-07
4.170158e-11
3.6982928
-5.4410827e-07
-1.0353271e-10
3.698293
-7.4825239e-07
5.9251675e-11
3.698293
5.4492205e-07
-9.6436341e-13
7.4752858e-07
4.410042e-11
3.9469413
-5.2096837e-07
-9.9493441e-11
3.9469415
-8.9152969e-07
4.5605233e-11
3.9469415
5.2145223e-07
7.0163795e-12
8.9052869e-07
4.7356633e-11
4.2041819
-4.8639539e-07
-9.5703675e-11
4.204182
-1.017903e-06
3.189229e-11
4.2041821
4.8669638e-07
1.4137317e-11
1.0167927e-06
5.1334596e-11
4.4696482
-4.423471e-07
-9.2254481e-11
4.4696483
-1.1219295e-06
1.8205621e-11
4.4696483
4.4257861e-07
2.0254507e-11
1.1208448e-06
5.5864959e-11
4.7429188
-3.9131358e-07
-8.9222121e-11
4.7429189
-1.1978819e-06
4.644343e-12
4.742919
3.9155434e-07
2.5295052e-11
1.1969234e-06
6.0749575e-11
5.0235191
-3.3618577e-07
-8.6672643e-11
5.0235192
-1.2399272e-06
-8.6862349e-12
5.0235192
3.3647951e-07
2.9227807e-11
1.2391602e-06
6.5773325e-11
5.3109232
-2.8004711e-07
-8.4663726e-11
5.3109232
-1.2424247e-06
-2.1674842e-11
5.3109233
2.8040339e-07
3.2060394e-11
1.2418792e-06
7.0727982e-11
5.6045569
-2.25883e-07
-8.3243971e-11
5.6045568
-1.2004065e-06
-3.4200975e-11
5.6045569
2.2628022e-07
3.3836746e-11
1.2000785e-06
7.5455288e-11
5.903801
-1.7621906e-07
-8.2447626e-11
5.9038009
-1.1103259e-06
-4.6129875e-11
5.903801
1.7661104e-07
3.4639635e-11
1.1101828e-06
7.9917083e-11
6.2079955
-1.3272913e-07
-8.2283815e-11
6.2079953
-9.7120223e-07
-5.7307875e-11
6.2079954
1.3305686e-07
3.4608817e-11
9.7119239e-07
8.4306241e-11
6.5164435
-9.5905557e-08
-8.2699519e-11
6.5164433
-7.8634927e-07
-6.7546694e-11
6.5164434
9.6115315e-08
3.4009635e-11
7.8641804e-07
8.9184591e-11
6.8284166
-6.4960456e-08
-8.3516668e-11
6.8284163
-5.6592601e-07
-7.6482093e-11
6.8284164
6.5028439e-08
3.3404975e-11
5.6603858e-07
9.5561191e-11
7.1431594
-3.8224942e-08
-8.4635037e-11
7.1431592
-3.3051224e-07
-8.3409727e-11
7.1431592
3.8187209e-08
3.4013762e-11
3.3068122e-07
1.0499996e-10
7.459896
-1.4727562e-08
-8.7087733e-11
7.4598958
-1.1711491e-07
-8.6517562e-11
7.4598958
1.4714205e-08
3.7371462e-11
1.1739135e-07
1.2146001e-10
7.7778349
-8.1237788e-11
7.7778348
-7.8646709e-11
7.7778348
3.9898052e-11
1.2991101e-10
0.025044688
-1.0126591e-07
0.025044797
-8.5239983e-08
0.025044689
1.1537954e-07
9.8263768e-08
-0.088559015
-2.4736894e-07
-0.088558856
-2.5041201e-07
-0.088559011
2.7886728e-07
2.6671388e-07
-0.11126311
-3.5394943e-07
-0.11126299
-3.7832808e-07
-0.11126311
4.0108982e-07
4.0091599e-07
-0.10343849
-2.7415523e-07
-0.10343855
-3.2129074e-07
-0.10343848
3.3667464e-07
3.5297893e-07
-0.081905417
-3.0751298e-08
-0.081905644
-8.9888418e-08
-0.081905412
1.0683315e-07
1.3242273e-07
-0.056895229
2.8246232e-07
-0.056895541
2.2683435e-07
-0.056895234
-1.9509208e-07
-1.7321388e-07
-0.033707439
5.778496e-07
-0.033707747
5.3893128e-07
-0.033707453
-4.816044e-07
-4.7493951e-07
-0.013525592
8.0070818e-07
-0.013525837
7.8624418e-07
-0.013525612
-6.9799939e-07
-7.1319541e-07
0.0044632808
9.3866412e-07
0.0044631173
9.5071555e-07
0.0044632592
-8.3186373e-07
-8.7022433e-07
0.021514094
1.0061777e-06
0.021514001
1.0434673e-06
0.021514074
-8.9747215e-07
-9.5720806e-07
0.038694986
1.0253648e-06
0.038694943
1.0855829e-06
0.038694967
-9.1627059e-07
-9.95091e-07
0.056794301
1.0147011e-06
0.05679429
1.096169e-06
0.056794284
-9.0626677e-07
-1.0027883e-06
0.076400834
9.8678714e-07
0.07640084
1.0888571e-06
0.076400816
-8.7970405e-07
-9.9373035e-07
0.097989242
9.4957608e-07
0.097989258
1.0726025e-06
0.097989224
-8.4436304e-07
-9.7670609e-07
0.12196979
9.0834096e-07
0.12196981
1.0534161e-06
0.12196977
-8.053735e-07
-9.5756234e-07
0.14871006
8.6681343e-07
0.14871007
1.0355709e-06
0.14871004
-7.6633792e-07
-9.4045416e-07
0.17854378
8.2753039e-07
0.1785438
1.0221211e-06
0.17854376
-7.2976594e-07
-9.283529e-07
0.21177694
7.9199087e-07
0.21177695
1.0150306e-06
0.21177691
-6.9716105e-07
-9.2315208e-07
0.24869471
7.6069364e-07
0.24869471
1.0151912e-06
0.24869468
-6.6904318e-07
-9.2577431e-07
0.28956977
7.3324539e-07
0.28956976
1.0224863e-06
0.28956974
-6.4503536e-07
-9.3598488e-07
0.3346707
7.0854566e-07
0.33467069
1.035952e-06
0.33467067
-6.2404895e-07
-9.5278165e-07
0.38426933
6.8502895e-07
0.38426931
1.0539822e-06
0.38426929
-6.0452018e-07
-9.7451638e-07
0.43864619
6.6091315e-07
0.43864617
1.074563e-06
0.43864615
-5.8465622e-07
-9.991289e-07
0.49809391
6.34418e-07
0.49809389
1.0954854e-06
0.49809387
-5.626532e-07
-1.0243595e-06
0.56291842
6.0393404e-07
0.5629184
1.1145162e-06
0.56291837
-5.3686645e-07
-1.0479203e-06
0.63343846
5.6813769e-07
0.63343844
1.1295184e-06
0.63343841
-5.0592758e-07
-1.067617e-06
0.70998369
5.260581e-07
0.70998368
1.1385215e-06
0.70998364
-4.6881377e-07
-1.0814245e-06
0.79289176
4.7710642e-07
0.79289176
1.1397732e-06
0.79289171
-4.248791e-07
-1.0875257e-06
0.88250477
4.2107794e-07
0.88250478
1.1317364e-06
0.88250473
-3.7385997e-07
-1.0843264e-06
0.97916521
3.58138e-07
0.97916522
1.113095e-06
0.97916516
-3.1586329e-07
-1.0704559e-06
1.0832117
2.8879832e-07
1.0832117
1.0827488e-06
1.0832116
-2.5134487e-07
-1.0447627e-06
1.1949745
2.1388843e-07
1.1949745
1.0398106e-06
1.1949745
-1.8108251e-07
-1.0063126e-06
1.3147713
1.3452406e-07
1.3147713
9.8360788e-07
1.3147713
-1.0614584e-07
-9.543912e-07
1.4429024
5.2073057e-08
1.4429025
9.1369219e-07
1.4429024
-2.7863142e-08
-8.8851341e-07
1.5796466
-3.1881966e-08
1.5796467
8.2985381e-07
1.5796466
5.2215234e-08
-8.0843988e-07
1.7252569
-1.1558546e-07
1.725257
7.3214482e-07
1.7252569
1.3235845e-07
-7.141997e-07
1.879956
-1.9715655e-07
1.8799561
6.2090657e-07
1.879956
2.1070274e-07
-6.0611756e-07
2.0439323
-2.7464347e-07
2.0439325
4.9679957e-07
2.0439324
2.8530606e-07
-4.8484401e-07
2.2173366
-3.4608562e-07
2.2173368
3.60835e-07
2.2173367
3.5421051e-07
-3.5138685e-07
2.4002778
-4.0958312e-07
2.4002779
2.1440608e-07
2.4002779
4.1551255e-07
-2.0714197e-07
2.5928198
-4.6337342e-07
2.59282
5.9317284e-08
2.5928199
4.6744017e-07
-5.3922131e-08
2.7949787
-5.059133e-07
2.7949789
-1.0218962e-07
2.7949788
5.0843571e-07
1.0601764e-07
3.0067201
-5.3596426e-07
3.0067202
-2.6741408e-07
3.0067202
5.3724184e-07
2.6995933e-07
3.2279566
-5.5267707e-07
3.2279568
-4.3318073e-07
3.2279568
5.529872e-07
4.3470628e-07
3.4585467
-5.5567251e-07
3.4585468
-5.9583015e-07
3.4585468
5.5526727e-07
5.9657477e-07
3.6982928
-5.4511067e-07
3.698293
-7.51218e-07
3.698293
5.4421436e-07
7.5139363e-07
3.9469413
-5.2174245e-07
3.9469415
-8.9472593e-07
3.9469415
5.2054931e-07
8.9451541e-07
4.2041819
-4.8693349e-07
4.204182
-1.0212899e-06
4.2041821
4.8560574e-07
1.0208451e-06
4.4696482
-4.4264948e-07
4.4696483
-1.1254571e-06
4.4696484
4.4131528e-07
1.124897e-06
4.7429189
-3.9138989e-07
4.7429189
-1.201489e-06
4.742919
3.9014164e-07
1.2008987e-06
5.0235191
-3.3605651e-07
5.0235192
-1.24354e-06
5.0235192
3.3494965e-07
1.2429702e-06
5.3109232
-2.7974465e-07
5.3109232
-1.2459557e-06
5.3109233
2.7879783e-07
1.2454238e-06
5.6045569
-2.2545187e-07
5.6045568
-1.2037536e-06
5.6045569
2.2464973e-07
1.2032478e-06
5.903801
-1.7571472e-07
5.9038009
-1.1133732e-06
5.903801
1.7501511e-07
1.1128608e-06
6.2079955
-1.3221431e-07
6.2079954
-9.7382641e-07
6.2079954
1.3156238e-07
9.7326729e-07
6.5164435
-9.544259e-08
6.5164434
-7.8843512e-07
6.5164434
9.4794882e-08
7.8780167e-07
6.8284166
-6.4598899e-08
6.8284164
-5.6740263e-07
6.8284164
6.395985e-08
5.6670364e-07
7.1431595
-3.7984434e-08
7.1431592
-3.3143217e-07
7.1431593
3.7458347e-08
3.3073113e-07
7.459896
-1.4601235e-08
7.4598958
-1.1764511e-07
7.4598958
1.4415656e-08
1.1709989e-07
7.7778349
7.7778348
7.7778348
)
;

boundaryField
{
    movingWall
    {
        type            calculated;
        value           uniform 0;
    }
    CPLReceiveMD
    {
        type            calculated;
        value           uniform 0;
    }
    streamwiseIn
    {
        type            cyclic;
        value           nonuniform List<scalar> 
120
(
-0.025044575
0.088559245
0.11126331
0.10343853
0.08190526
0.056894959
0.03370715
0.013525352
-0.0044634454
-0.021514189
-0.03869503
-0.056794312
-0.076400825
-0.097989222
-0.12196977
-0.14871003
-0.17854376
-0.21177692
-0.24869469
-0.28956976
-0.33467069
-0.38426932
-0.43864619
-0.4980939
-0.56291841
-0.63343844
-0.70998366
-0.79289173
-0.88250474
-0.97916516
-1.0832116
-1.1949744
-1.3147712
-1.4429023
-1.5796466
-1.7252568
-1.8799559
-2.0439323
-2.2173366
-2.4002777
-2.5928198
-2.7949787
-3.0067201
-3.2279566
-3.4585467
-3.6982928
-3.9469414
-4.2041819
-4.4696482
-4.7429189
-5.0235192
-5.3109233
-5.6045569
-5.903801
-6.2079955
-6.5164436
-6.8284166
-7.1431595
-7.459896
-7.7778349
-0.025044589
0.088559164
0.11126323
0.10343843
0.081905191
0.05689493
0.033707152
0.013525374
-0.0044634161
-0.021514161
-0.038695006
-0.056794292
-0.076400807
-0.097989207
-0.12196976
-0.14871002
-0.17854375
-0.21177691
-0.24869468
-0.28956975
-0.33467068
-0.38426931
-0.43864617
-0.49809389
-0.5629184
-0.63343843
-0.70998365
-0.79289172
-0.88250472
-0.97916515
-1.0832116
-1.1949744
-1.3147712
-1.4429023
-1.5796466
-1.7252568
-1.8799559
-2.0439323
-2.2173366
-2.4002777
-2.5928197
-2.7949787
-3.00672
-3.2279566
-3.4585467
-3.6982929
-3.9469414
-4.204182
-4.4696482
-4.7429189
-5.0235192
-5.3109233
-5.6045569
-5.9038011
-6.2079955
-6.5164436
-6.8284166
-7.1431595
-7.4598961
-7.7778349
)
;
    }
    streamwiseOut
    {
        type            cyclic;
        value           nonuniform List<scalar> 
120
(
0.025044575
-0.088559245
-0.11126331
-0.10343853
-0.08190526
-0.056894959
-0.03370715
-0.013525352
0.0044634454
0.021514189
0.03869503
0.056794312
0.076400825
0.097989222
0.12196977
0.14871003
0.17854376
0.21177692
0.24869469
0.28956976
0.33467069
0.38426932
0.43864619
0.4980939
0.56291841
0.63343844
0.70998366
0.79289173
0.88250474
0.97916516
1.0832116
1.1949744
1.3147712
1.4429023
1.5796466
1.7252568
1.8799559
2.0439323
2.2173366
2.4002777
2.5928198
2.7949787
3.0067201
3.2279566
3.4585467
3.6982928
3.9469414
4.2041819
4.4696482
4.7429189
5.0235192
5.3109233
5.6045569
5.903801
6.2079955
6.5164436
6.8284166
7.1431595
7.459896
7.7778349
0.025044589
-0.088559164
-0.11126323
-0.10343843
-0.081905191
-0.05689493
-0.033707152
-0.013525374
0.0044634161
0.021514161
0.038695006
0.056794292
0.076400807
0.097989207
0.12196976
0.14871002
0.17854375
0.21177691
0.24869468
0.28956975
0.33467068
0.38426931
0.43864617
0.49809389
0.5629184
0.63343843
0.70998365
0.79289172
0.88250472
0.97916515
1.0832116
1.1949744
1.3147712
1.4429023
1.5796466
1.7252568
1.8799559
2.0439323
2.2173366
2.4002777
2.5928197
2.7949787
3.00672
3.2279566
3.4585467
3.6982929
3.9469414
4.204182
4.4696482
4.7429189
5.0235192
5.3109233
5.6045569
5.9038011
6.2079955
6.5164436
6.8284166
7.1431595
7.4598961
7.7778349
)
;
    }
    front
    {
        type            cyclic;
        value           nonuniform 0();
    }
    back
    {
        type            cyclic;
        value           nonuniform 0();
    }
    procBoundary0to1
    {
        type            processor;
        value           nonuniform List<scalar> 
240
(
2.2388131e-10
-2.376026e-09
-2.3771843e-09
-5.1021619e-09
1.0040136e-08
-1.9603191e-09
-1.1706406e-09
-4.4940598e-09
1.1217304e-08
-8.7613927e-10
-1.065782e-10
-2.7811287e-09
1.0900646e-08
6.0316262e-11
2.7743539e-10
-1.6768091e-09
9.3530515e-09
3.8588418e-10
5.8018055e-10
-1.1536824e-09
7.4107526e-09
4.7144164e-10
6.3614381e-10
-9.0945836e-10
5.6222844e-09
4.397305e-10
5.5619737e-10
-8.2422845e-10
4.194031e-09
3.5016486e-10
4.4443929e-10
-7.8816114e-10
3.1342375e-09
2.3890839e-10
3.4504978e-10
-7.6508505e-10
2.4770341e-09
1.2301473e-10
2.850954e-10
-7.4314318e-10
1.8118913e-09
1.1449697e-11
2.2068233e-10
-7.1758192e-10
1.2907774e-09
-8.7184861e-11
1.4088e-10
-6.8664147e-10
8.7861775e-10
-1.6765761e-10
7.9264254e-11
-6.4972702e-10
6.402477e-10
-2.285665e-10
3.2201045e-11
-6.0292455e-10
4.8564844e-10
-2.7341927e-10
-3.3860003e-12
-5.5858152e-10
3.2973438e-10
-3.0486268e-10
-2.9571657e-11
-5.1475455e-10
2.1161938e-10
-3.2453883e-10
-4.7803434e-11
-4.7138269e-10
1.2334626e-10
-3.3442423e-10
-5.9145323e-11
-4.4356094e-10
5.9079416e-11
-3.3648335e-10
-6.445722e-11
-3.5816664e-10
1.4217815e-11
-3.315192e-10
-6.4325825e-11
-3.165619e-10
-1.4705975e-11
-3.2409745e-10
-5.962195e-11
-2.8382066e-10
-3.0593114e-11
-3.1522007e-10
-5.1358662e-11
-2.5436335e-10
-3.5984618e-11
-3.0543857e-10
-4.0381575e-11
-2.2752944e-10
-3.3126603e-11
-2.9517622e-10
-2.7400405e-11
-2.0345862e-10
-2.4065912e-11
-2.8477261e-10
-1.3116272e-11
-1.8224466e-10
-1.0623665e-11
-2.7451783e-10
1.7912816e-12
-1.6378959e-10
5.599616e-12
-2.6236085e-10
1.6679631e-11
-1.4783057e-10
2.3244325e-11
-2.5224677e-10
3.0970713e-11
-1.3401112e-10
4.1170015e-11
-2.430393e-10
4.4142938e-11
-1.2194393e-10
5.8459406e-11
-2.3398064e-10
5.57546e-11
-1.1125949e-10
7.441503e-11
-2.2493891e-10
6.5459769e-11
-1.0163723e-10
8.8544122e-11
-2.1585545e-10
7.3014672e-11
-9.2823237e-11
1.0053814e-10
-2.0666606e-10
7.8277089e-11
-8.4646774e-11
1.1024769e-10
-1.9765265e-10
8.120045e-11
-7.7024924e-11
1.1765498e-10
-1.879359e-10
8.182397e-11
-6.9931447e-11
1.2285048e-10
-1.7807197e-10
8.0266528e-11
-6.3389653e-11
1.2600563e-10
-1.6791401e-10
7.67132e-11
-5.7459862e-11
1.2734655e-10
-1.5740026e-10
7.1400256e-11
-5.2225513e-11
1.2713173e-10
-1.4648995e-10
6.4602739e-11
-4.7779416e-11
1.2563305e-10
-1.3516026e-10
5.6621038e-11
-4.4211642e-11
1.2312042e-10
-1.2340521e-10
4.7768806e-11
-4.1599621e-11
1.198497e-10
-1.1123455e-10
3.8361532e-11
-4.0000296e-11
1.1615669e-10
-9.8672692e-11
2.8706527e-11
-3.9482672e-11
1.1203264e-10
-8.5758124e-11
1.9093938e-11
-3.9978948e-11
1.0779765e-10
-7.254306e-11
9.7904897e-12
-4.1480101e-11
1.035842e-10
-5.9092614e-11
1.0294629e-12
-4.3926911e-11
9.9523282e-11
-4.5482699e-11
-6.9717714e-12
-4.7221831e-11
9.5721138e-11
-3.1798828e-11
-1.4105635e-11
-5.1231109e-11
9.2265613e-11
-1.813523e-11
-2.0230201e-11
-5.5786653e-11
8.9230642e-11
-4.5920956e-12
-2.5274685e-11
-6.0691365e-11
8.6680774e-11
8.7242384e-12
-2.9209245e-11
-6.5730864e-11
8.4672505e-11
2.1701627e-11
-3.2042349e-11
-7.0698317e-11
8.3253815e-11
3.4219069e-11
-3.3818661e-11
-7.5436562e-11
8.2458288e-11
4.6141466e-11
-3.4621331e-11
-7.9906503e-11
8.2295061e-11
5.7314147e-11
-3.4590719e-11
-8.4301386e-11
8.2710447e-11
6.7549322e-11
-3.3992366e-11
-8.9183273e-11
8.3526271e-11
7.6483026e-11
-3.3389778e-11
-9.5561216e-11
8.4642204e-11
8.341068e-11
-3.4002173e-11
-1.0499973e-10
8.7092181e-11
8.6519255e-11
-3.7364378e-11
-1.2145961e-10
8.1239764e-11
7.8647243e-11
-3.9895786e-11
-1.2991212e-10
)
;
    }
    procBoundary0to1throughfront
    {
        type            processorCyclic;
        value           nonuniform List<scalar> 
240
(
-1.6857266e-09
4.4564657e-09
7.3287024e-09
9.227816e-09
8.6188457e-09
7.0674416e-09
5.5800213e-09
4.4766251e-09
3.5691826e-09
2.7744304e-09
2.1354907e-09
1.6419467e-09
1.2682686e-09
9.8892264e-10
7.8076646e-10
6.2260718e-10
5.0262986e-10
4.1124051e-10
3.4087647e-10
2.8518352e-10
2.3930651e-10
1.9960772e-10
1.6361171e-10
1.2987943e-10
9.7673755e-11
6.6799486e-11
3.7372668e-11
9.6646241e-12
-1.5968907e-11
-3.9187696e-11
-5.9719098e-11
-7.738712e-11
-9.2120636e-11
-1.0394937e-10
-1.129922e-10
-1.1944404e-10
-1.2355772e-10
-1.256233e-10
-1.2594993e-10
-1.2484992e-10
-1.2262534e-10
-1.1955852e-10
-1.1600368e-10
-1.1197069e-10
-1.0779207e-10
-1.0361032e-10
-9.9564115e-11
-9.5765416e-11
-9.2306441e-11
-8.9264286e-11
-8.6705637e-11
-8.4688531e-11
-8.3261629e-11
-8.2459482e-11
-8.2291088e-11
-8.270373e-11
-8.351919e-11
-8.4636912e-11
-8.7089243e-11
-8.1237758e-11
-5.1853618e-09
-3.728462e-09
-1.3027568e-09
2.5003764e-10
1.20153e-09
1.5558745e-09
1.6890856e-09
1.649273e-09
1.548953e-09
1.4555002e-09
1.3579954e-09
1.2492243e-09
1.1352754e-09
1.0214095e-09
9.131836e-10
8.1364225e-10
7.2384204e-10
6.4399333e-10
5.7362337e-10
5.1114842e-10
4.5942362e-10
4.162707e-10
3.8011847e-10
3.4974024e-10
3.2406552e-10
3.0203901e-10
2.8103234e-10
2.6681902e-10
2.5347416e-10
2.4131576e-10
2.3005981e-10
2.1943546e-10
2.0919094e-10
1.993398e-10
1.8930276e-10
1.7912755e-10
1.6876169e-10
1.5810669e-10
1.4709593e-10
1.3568977e-10
1.2387164e-10
1.1164522e-10
9.9031884e-11
8.6068744e-11
7.2807813e-11
5.9314419e-11
4.5664924e-11
3.1945451e-11
1.8250368e-11
4.6800271e-12
-8.6593588e-12
-2.1655879e-11
-3.4188733e-11
-4.6123114e-11
-5.7305247e-11
-6.7546331e-11
-7.6482189e-11
-8.3408984e-11
-8.6515308e-11
-7.8645014e-11
7.0915463e-10
1.8140865e-09
2.3252043e-09
2.6100246e-09
2.5466216e-09
2.3762195e-09
2.1520646e-09
1.9026912e-09
1.6558358e-09
1.4251384e-09
1.2165913e-09
1.0324889e-09
8.7078754e-10
7.3158992e-10
6.1368933e-10
5.1473586e-10
4.3188278e-10
3.6220596e-10
3.0296153e-10
2.5167416e-10
2.0663659e-10
1.6670042e-10
1.308549e-10
9.8390045e-11
6.8826869e-11
4.1912504e-11
1.7568397e-11
-4.1854915e-12
-2.3252048e-11
-3.9521204e-11
-5.2905898e-11
-6.3364563e-11
-7.0913653e-11
-7.5631786e-11
-7.7657729e-11
-7.7188983e-11
-7.447373e-11
-6.9799375e-11
-6.348241e-11
-5.5856893e-11
-4.7263971e-11
-3.8041352e-11
-2.8514276e-11
-1.898715e-11
-9.738289e-12
-1.0098482e-12
6.9742024e-12
1.4100831e-11
2.0224407e-11
2.5271447e-11
2.9210387e-11
3.2048611e-11
3.3829827e-11
3.463673e-11
3.4608898e-11
3.4011536e-11
3.3407246e-11
3.401523e-11
3.7371588e-11
3.9898065e-11
-2.3793042e-09
-1.0445905e-09
5.1557575e-10
2.0348996e-09
2.829808e-09
3.0703984e-09
3.0423747e-09
2.8774975e-09
2.6488401e-09
2.393719e-09
2.1316636e-09
1.8741515e-09
1.6280105e-09
1.394789e-09
1.1950998e-09
1.0172522e-09
8.6010278e-10
7.1705432e-10
5.8393822e-10
4.9777365e-10
4.2237092e-10
3.5792349e-10
3.0377664e-10
2.5891543e-10
2.2214002e-10
1.9219576e-10
1.6786232e-10
1.4801449e-10
1.316622e-10
1.1797324e-10
1.0627497e-10
9.6048542e-11
8.6926112e-11
7.8680048e-11
7.117947e-11
6.4373247e-11
5.8269826e-11
5.2917348e-11
4.8385475e-11
4.4749676e-11
4.2078807e-11
4.0424915e-11
3.985503e-11
4.0301226e-11
4.1754192e-11
4.4155806e-11
4.7409062e-11
5.1380583e-11
5.5902786e-11
6.0778642e-11
6.5793713e-11
7.0740359e-11
7.5461629e-11
7.9919115e-11
8.4304906e-11
8.9181121e-11
9.5557119e-11
1.0499671e-10
1.2145812e-10
1.2990988e-10
)
;
    }
}


// ************************************************************************* //
