/*--------------------------------*- C++ -*----------------------------------*\
| =========                 |                                                 |
| \\      /  F ield         | OpenFOAM: The Open Source CFD Toolbox           |
|  \\    /   O peration     | Version:  3.0.1                                 |
|   \\  /    A nd           | Web:      www.OpenFOAM.org                      |
|    \\/     M anipulation  |                                                 |
\*---------------------------------------------------------------------------*/
FoamFile
{
    version     2.0;
    format      ascii;
    class       volVectorField;
    location    "300";
    object      U;
}
// * * * * * * * * * * * * * * * * * * * * * * * * * * * * * * * * * * * * * //

dimensions      [0 1 -1 0 0 0 0];

internalField   nonuniform List<vector> 
480
(
(0.0015777071 3.280717e-09 1.7739271e-11)
(0.0015777243 -5.9829911e-10 6.8160742e-12)
(0.0015777236 9.3291366e-10 2.5638053e-11)
(0.0015777071 1.0025658e-09 1.8164227e-12)
(-0.0055788868 3.4025106e-09 1.6497748e-11)
(-0.0055788572 -2.6153289e-09 7.500018e-12)
(-0.0055788604 3.3264298e-09 2.7121247e-11)
(-0.005578886 3.2079923e-09 2.1148316e-12)
(-0.0070091531 2.815983e-10 1.7594466e-11)
(-0.0070091285 -5.2587529e-09 8.6728427e-12)
(-0.0070091316 6.1810695e-09 2.8444513e-11)
(-0.0070091521 6.0656922e-09 4.3124612e-12)
(-0.0065162228 -1.7779288e-09 2.0008064e-11)
(-0.0065162199 -6.0505858e-09 9.4354795e-12)
(-0.0065162232 7.1157513e-09 2.8737992e-11)
(-0.0065162209 7.1447265e-09 6.275111e-12)
(-0.005159711 1.868102e-10 2.1351673e-11)
(-0.0051597315 -3.5706284e-09 9.3463376e-12)
(-0.0051597341 4.7336279e-09 2.7301175e-11)
(-0.0051597096 5.0148028e-09 6.8821178e-12)
(-0.0035841596 4.339379e-09 2.1132786e-11)
(-0.0035841926 1.178906e-09 8.4615677e-12)
(-0.0035841946 1.6676737e-10 2.4784286e-11)
(-0.0035841598 5.6169438e-10 6.5389909e-12)
(-0.0021234182 8.9417852e-09 1.9699329e-11)
(-0.0021234521 6.5005577e-09 7.1845637e-12)
(-0.0021234536 -4.825491e-09 2.1806959e-11)
(-0.0021234197 -4.5341768e-09 5.649503e-12)
(-0.00085204396 1.2783583e-08 1.7731779e-11)
(-0.00085207087 1.1115153e-08 5.7546074e-12)
(-0.00085207199 -9.0158799e-09 1.874976e-11)
(-0.00085204637 -8.9859777e-09 4.5383254e-12)
(0.00028117953 1.5326066e-08 1.572331e-11)
(0.00028116225 1.4406295e-08 4.3995998e-12)
(0.00028116138 -1.1865621e-08 1.5825185e-11)
(0.00028117688 -1.2173667e-08 3.4301903e-12)
(0.0013553091 1.6640292e-08 1.3530281e-11)
(0.0013553004 1.6384939e-08 3.2281263e-12)
(0.0013552996 -1.3449796e-08 1.3121057e-11)
(0.0013553066 -1.4101325e-08 2.4347093e-12)
(0.0024376341 1.7061077e-08 1.1186553e-11)
(0.0024376316 1.736935e-08 2.2625693e-12)
(0.0024376309 -1.4108177e-08 1.062798e-11)
(0.002437632 -1.5077989e-08 1.6039819e-12)
(0.0035778174 1.6920849e-08 9.0032715e-12)
(0.0035778187 1.7708775e-08 1.5147771e-12)
(0.003577818 -1.4177567e-08 8.3709162e-12)
(0.0035778155 -1.5442772e-08 9.6267815e-13)
(0.0048129502 1.6457404e-08 7.097912e-12)
(0.0048129539 1.7669392e-08 9.710542e-13)
(0.0048129531 -1.3899369e-08 6.4671374e-12)
(0.0048129485 -1.5452223e-08 5.1140661e-13)
(0.006172934 1.5820731e-08 5.474362e-12)
(0.0061729389 1.742771e-08 6.0050227e-13)
(0.006172938 -1.342687e-08 4.8987239e-12)
(0.0061729324 -1.5274854e-08 2.2157847e-13)
(0.0076836137 1.5105435e-08 4.0846051e-12)
(0.0076836193 1.7099107e-08 3.6585814e-13)
(0.0076836182 -1.2857925e-08 3.6277911e-12)
(0.0076836122 -1.5020221e-08 6.2815111e-14)
(0.0093681446 1.43757e-08 2.9609035e-12)
(0.0093681503 1.6763588e-08 2.3271677e-13)
(0.009368149 -1.2259871e-08 2.6167981e-12)
(0.0093681431 -1.4764468e-08 -5.8295999e-15)
(0.011247552 1.3676852e-08 2.0769845e-12)
(0.011247557 1.6479177e-08 1.6930935e-13)
(0.011247556 -1.1681028e-08 1.8285699e-12)
(0.01124755 -1.4563164e-08 -1.4592028e-14)
(0.013341109 1.303833e-08 1.3983128e-12)
(0.013341115 1.6286086e-08 1.4975224e-13)
(0.013341113 -1.1153654e-08 1.2268785e-12)
(0.013341108 -1.4455015e-08 1.5072668e-14)
(0.015666783 1.247395e-08 8.8870126e-13)
(0.015666788 1.6207166e-08 1.5525225e-13)
(0.015666786 -1.0694043e-08 7.7722853e-13)
(0.015666782 -1.446196e-08 7.1249636e-14)
(0.018241751 1.1982622e-08 5.1698621e-13)
(0.018241755 1.6248299e-08 1.7162085e-13)
(0.018241753 -1.030318e-08 4.4954698e-13)
(0.01824175 -1.4590007e-08 1.2015018e-13)
(0.021082932 1.1550604e-08 2.5269052e-13)
(0.021082936 1.6400163e-08 1.8997075e-13)
(0.021082933 -9.9689756e-09 2.1663952e-13)
(0.021082931 -1.4830276e-08 1.6127925e-13)
(0.02420745 1.1155049e-08 7.1172049e-14)
(0.024207454 1.6641329e-08 2.0473235e-13)
(0.02420745 -9.669705e-09 5.7314071e-14)
(0.024207448 -1.5161282e-08 1.9160776e-13)
(0.027632977 1.0767941e-08 -4.7220253e-14)
(0.027632982 1.6942056e-08 2.1353666e-13)
(0.027632978 -9.3780347e-09 -4.6669848e-14)
(0.027632976 -1.555319e-08 2.0969925e-13)
(0.031377949 1.0359828e-08 -1.1989234e-13)
(0.031377954 1.7267968e-08 2.1561241e-13)
(0.031377949 -9.0648424e-09 -1.1000046e-13)
(0.031377948 -1.5971416e-08 2.1649658e-13)
(0.035461636 9.9028979e-09 -1.5903848e-13)
(0.035461642 1.7583136e-08 2.114516e-13)
(0.035461637 -8.7023225e-09 -1.4401821e-13)
(0.035461636 -1.6379688e-08 2.1384539e-13)
(0.03990412 9.3731967e-09 -1.749018e-13)
(0.039904127 1.7852402e-08 2.0183636e-13)
(0.039904122 -8.2663051e-09 -1.5753844e-13)
(0.03990412 -1.6742371e-08 2.037777e-13)
(0.044726166 8.7520305e-09 -1.7527352e-13)
(0.044726175 1.8042926e-08 1.8525834e-13)
(0.044726169 -7.7377102e-09 -1.5735016e-13)
(0.044726167 -1.7026002e-08 1.8844223e-13)
(0.049949047 8.0266655e-09 -1.6566428e-13)
(0.049949057 1.8124928e-08 1.6591075e-13)
(0.049949051 -7.1033144e-09 -1.4837895e-13)
(0.049949048 -1.7200168e-08 1.6974606e-13)
(0.055594312 7.190538e-09 -1.5014072e-13)
(0.055594324 1.80721e-08 1.4534152e-13)
(0.055594317 -6.3560033e-09 -1.3423354e-13)
(0.055594314 -1.7237896e-08 1.4930334e-13)
(0.061683536 6.2431349e-09 -1.316197e-13)
(0.061683551 1.7861748e-08 1.2471163e-13)
(0.061683543 -5.4946842e-09 -1.1749499e-13)
(0.06168354 -1.7115749e-08 1.2839752e-13)
(0.068238052 5.1896729e-09 -1.1215364e-13)
(0.068238069 1.7474646e-08 1.0490473e-13)
(0.068238061 -4.5239997e-09 -9.9973394e-14)
(0.068238056 -1.6813783e-08 1.0805214e-13)
(0.075278668 4.040675e-09 -9.3123164e-14)
(0.075278687 1.6894948e-08 8.6515828e-14)
(0.075278678 -3.4539291e-09 -8.2890038e-14)
(0.075278674 -1.6315491e-08 8.8970914e-14)
(0.08282539 2.8114903e-09 -7.5407002e-14)
(0.082825412 1.6110178e-08 6.9918411e-14)
(0.082825403 -2.2993287e-09 -6.7027136e-14)
(0.082825398 -1.5607795e-08 7.1638948e-14)
(0.090897144 1.5217769e-09 -5.9524021e-14)
(0.090897167 1.5111298e-08 5.5232458e-14)
(0.090897158 -1.0794296e-09 -5.2844247e-14)
(0.090897153 -1.4681154e-08 5.6335808e-14)
(0.099511491 1.9493908e-10 -4.5727511e-14)
(0.099511517 1.3892921e-08 4.2252741e-14)
(0.099511507 1.827149e-10 -4.0561081e-14)
(0.099511503 -1.3529765e-08 4.3158587e-14)
(0.10868436 -1.1424967e-09 -3.4063043e-14)
(0.10868439 1.2453618e-08 3.1333481e-14)
(0.10868438 1.4608432e-09 -3.02087e-14)
(0.10868438 -1.2151884e-08 3.2083077e-14)
(0.11842979 -2.4615849e-09 -2.4451578e-14)
(0.11842982 1.0796311e-08 2.2408845e-14)
(0.11842981 2.7261833e-09 -2.1711116e-14)
(0.11842981 -1.0550227e-08 2.30024e-14)
(0.12875965 -3.7317693e-09 -1.673641e-14)
(0.12875969 8.9287338e-09 1.5282802e-14)
(0.12875967 3.9482622e-09 -1.4919364e-14)
(0.12875967 -8.7324265e-09 1.5747301e-14)
(0.13968344 -4.9218104e-09 -1.0714979e-14)
(0.13968347 6.8639326e-09 9.7405747e-15)
(0.13968346 5.0958322e-09 -9.6439481e-15)
(0.13968346 -6.7115301e-09 1.0110854e-14)
(0.15120801 -6.0008316e-09 -6.1577104e-15)
(0.15120804 4.6207734e-09 5.5538077e-15)
(0.15120803 6.1379198e-09 -5.6746627e-15)
(0.15120803 -4.5064965e-09 5.8690471e-15)
(0.16333739 -6.9394837e-09 -2.83641e-15)
(0.16333743 2.2244279e-09 2.5078484e-15)
(0.16333742 7.0449977e-09 -2.7997699e-15)
(0.16333742 -2.1426734e-09 2.7935914e-15)
(0.17607261 -7.7112126e-09 -5.2773309e-16)
(0.17607265 -2.9318391e-10 3.9476728e-16)
(0.17607263 7.7902602e-09 -8.152214e-16)
(0.17607264 3.4776989e-10 6.7306622e-16)
(0.18941148 -8.2935974e-09 9.8011172e-16)
(0.18941152 -2.8930111e-09 -9.7947526e-16)
(0.1894115 8.3509715e-09 4.6448109e-16)
(0.18941151 2.9254708e-09 -6.9680428e-16)
(0.2033485 -8.6697193e-09 1.8709552e-15)
(0.20334854 -5.5285703e-09 -1.782261e-15)
(0.20334853 8.7098427e-09 1.2019807e-15)
(0.20334854 5.5435847e-09 -1.4896673e-15)
(0.21787477 -8.8294918e-09 2.3007585e-15)
(0.21787481 -8.1457421e-09 -2.1617217e-15)
(0.21787479 8.8563719e-09 1.5472105e-15)
(0.2178748 8.1475908e-09 -1.8615739e-15)
(0.23297783 -8.7708735e-09 2.4049014e-15)
(0.23297787 -1.0682683e-08 -2.240114e-15)
(0.23297786 8.7880674e-09 1.6160078e-15)
(0.23297787 1.067521e-08 -1.9392241e-15)
(0.2486417 -8.50086e-09 2.2883687e-15)
(0.24864174 -1.3069887e-08 -2.1186733e-15)
(0.24864173 8.5114458e-09 1.5049969e-15)
(0.24864174 1.3056476e-08 -1.8197517e-15)
(0.26484685 -8.0361211e-09 2.0329967e-15)
(0.26484688 -1.5230474e-08 -1.8771796e-15)
(0.26484687 8.0426735e-09 1.2927221e-15)
(0.26484688 1.5214019e-08 -1.5822435e-15)
(0.28157017 -7.4031199e-09 1.7038813e-15)
(0.28157021 -1.7080811e-08 -1.572354e-15)
(0.28157019 7.4076899e-09 1.0327465e-15)
(0.28157021 1.7063699e-08 -1.2876955e-15)
(0.29878515 -6.6375233e-09 1.3521841e-15)
(0.29878518 -1.8531699e-08 -1.2469571e-15)
(0.29878516 6.6416216e-09 7.5562524e-16)
(0.29878518 1.8515785e-08 -9.7563694e-16)
(0.31646186 -5.7826857e-09 1.0135572e-15)
(0.31646189 -1.9490471e-08 -9.3303543e-16)
(0.31646187 5.7872726e-09 4.8510106e-16)
(0.31646189 1.9477061e-08 -6.6929574e-16)
(0.33456718 -4.8869911e-09 7.0838213e-16)
(0.33456721 -1.9864536e-08 -6.5200211e-16)
(0.33456719 4.8924793e-09 2.3912776e-16)
(0.33456721 1.9854377e-08 -3.8898367e-16)
(0.35306495 -3.9999031e-09 4.4384439e-16)
(0.35306497 -1.9567272e-08 -4.1422198e-16)
(0.35306495 4.0061859e-09 2.9975488e-17)
(0.35306497 1.9560564e-08 -1.4826966e-16)
(0.37191615 -3.1667378e-09 2.3456506e-16)
(0.37191617 -1.8527764e-08 -2.2182673e-16)
(0.37191614 3.1732649e-09 -1.3901424e-16)
(0.37191617 1.8524213e-08 4.2420288e-17)
(0.3910792 -2.4224456e-09 7.725947e-17)
(0.39107921 -1.6705852e-08 -7.8240879e-17)
(0.39107919 2.4283802e-09 -2.562215e-16)
(0.39107922 1.6704799e-08 1.7951614e-16)
(0.41051022 -1.7850857e-09 -1.1865389e-17)
(0.41051022 -1.4111023e-08 3.036531e-18)
(0.4105102 1.7895786e-09 -3.1115839e-16)
(0.41051022 1.4111661e-08 2.5233796e-16)
(0.43016329 -1.2506707e-09 -3.3076958e-17)
(0.43016329 -1.0823362e-08 1.8505227e-17)
(0.43016326 1.2532036e-09 -2.8934824e-16)
(0.43016329 1.0825027e-08 2.4731813e-16)
(0.44999085 -7.9648043e-10 -7.0027427e-18)
(0.44999085 -7.0568616e-09 -1.5690352e-17)
(0.44999082 7.9695111e-10 -2.0325783e-16)
(0.44999085 7.0587025e-09 1.7434518e-16)
(0.469944 -4.0296409e-10 1.5615736e-17)
(0.469944 -3.3536097e-09 -6.8013853e-17)
(0.46994398 4.018352e-10 -9.3766217e-17)
(0.469944 3.357791e-09 8.4704702e-17)
(0.4899729 -1.2299748e-10 -1.9657588e-17)
(0.48997289 -8.6109231e-10 -5.2456305e-17)
(0.48997289 1.2359462e-10 -2.801865e-17)
(0.4899729 8.6264352e-10 5.4060222e-17)
(0.0015777081 -7.1079378e-10 1.4384928e-10)
(0.0015777253 -7.0084488e-10 -2.5008906e-10)
(0.0015777248 9.3462192e-10 -2.0627934e-11)
(0.0015777084 8.2330225e-10 -2.4980678e-10)
(-0.0055788817 -2.789394e-09 1.1376479e-09)
(-0.0055788547 -2.672781e-09 -1.3791339e-10)
(-0.0055788568 3.1846731e-09 9.5773844e-11)
(-0.0055788793 2.9243591e-09 -1.4792098e-10)
(-0.0070091482 -5.1624707e-09 1.3786567e-09)
(-0.0070091256 -5.4064147e-09 -2.6684174e-13)
(-0.0070091273 5.8233103e-09 1.8172313e-10)
(-0.0070091459 5.7064152e-09 -1.3890296e-11)
(-0.0065162171 -5.6769674e-09 1.4146748e-09)
(-0.0065162167 -6.2401794e-09 1.0133026e-10)
(-0.0065162187 6.5578915e-09 2.2376124e-10)
(-0.0065162136 6.6619714e-09 8.8463828e-11)
(-0.005159707 -2.891705e-09 1.2369336e-09)
(-0.0051597293 -3.7606594e-09 1.4578645e-10)
(-0.0051597308 3.9953338e-09 2.2776891e-10)
(-0.0051597045 4.3471753e-09 1.3604617e-10)
(-0.003584158 1.9150807e-09 9.8760933e-10)
(-0.003584192 9.6694017e-10 1.5263805e-10)
(-0.0035841931 -6.1369547e-10 2.1016466e-10)
(-0.0035841574 -1.9828962e-10 1.4500919e-10)
(-0.0021234185 7.038512e-09 7.5265894e-10)
(-0.0021234529 6.2591368e-09 1.4207093e-10)
(-0.0021234537 -5.579039e-09 1.8363312e-10)
(-0.0021234195 -5.3205819e-09 1.3595781e-10)
(-0.00085204548 1.1275784e-08 5.6141575e-10)
(-0.00085207252 1.0839773e-08 1.2554759e-10)
(-0.00085207309 -9.6972946e-09 1.5543046e-10)
(-0.00085204745 -9.7489416e-09 1.2081187e-10)
(0.00028117759 1.4118336e-08 4.1535562e-10)
(0.00028116036 1.4101377e-08 1.0812632e-10)
(0.0002811599 -1.2456762e-08 1.2894324e-10)
(0.0002811753 -1.2879946e-08 1.0449243e-10)
(0.0013553072 1.5664883e-08 3.0642758e-10)
(0.0013552986 1.6064226e-08 9.1556122e-11)
(0.0013552982 -1.3954896e-08 1.0540564e-10)
(0.0013553051 -1.4737452e-08 8.8791984e-11)
(0.0024376325 1.6269376e-08 2.260756e-10)
(0.0024376301 1.7049599e-08 7.6418757e-11)
(0.0024376296 -1.4540113e-08 8.5124604e-11)
(0.0024376307 -1.5642908e-08 7.4361596e-11)
(0.003577816 1.62767e-08 1.6694513e-10)
(0.0035778175 1.7403767e-08 6.2933776e-11)
(0.0035778169 -1.4548776e-08 6.802915e-11)
(0.0035778144 -1.5940185e-08 6.1441857e-11)
(0.004812949 1.5932035e-08 1.2328666e-10)
(0.0048129527 1.7387699e-08 5.1162471e-11)
(0.0048129521 -1.4219519e-08 5.3912656e-11)
(0.0048129475 -1.5887245e-08 5.0106564e-11)
(0.0061729329 1.5390535e-08 9.082707e-11)
(0.0061729379 1.7173383e-08 4.1076728e-11)
(0.006172937 -1.3703357e-08 4.2408189e-11)
(0.0061729315 -1.5653128e-08 4.0353246e-11)
(0.0076836128 1.4751122e-08 6.6676199e-11)
(0.0076836184 1.6873233e-08 3.2593242e-11)
(0.0076836173 -1.3096615e-08 3.3140125e-11)
(0.0076836114 -1.5347576e-08 3.2111437e-11)
(0.0093681437 1.4082373e-08 4.8890749e-11)
(0.0093681494 1.6565625e-08 2.5591098e-11)
(0.0093681481 -1.2465648e-08 2.5755286e-11)
(0.0093681424 -1.5046694e-08 2.5293434e-11)
(0.011247551 1.3433243e-08 3.5839052e-11)
(0.011247556 1.6307755e-08 1.9907476e-11)
(0.011247555 -1.1858093e-08 1.9927509e-11)
(0.01124755 -1.4805926e-08 1.9759169e-11)
(0.013341109 1.2835659e-08 2.6274914e-11)
(0.013341114 1.6139401e-08 1.5360037e-11)
(0.013341112 -1.1305642e-08 1.5365036e-11)
(0.013341107 -1.466384e-08 1.5322258e-11)
(0.015666783 1.2305244e-08 1.9278991e-11)
(0.015666787 1.6083145e-08 1.1763819e-11)
(0.015666785 -1.0824097e-08 1.1813923e-11)
(0.015666781 -1.4642679e-08 1.1727887e-11)
(0.01824175 1.1842237e-08 1.4160451e-11)
(0.018241755 1.6144733e-08 8.9510704e-12)
(0.018241752 -1.0413989e-08 9.0639025e-12)
(0.018241749 -1.4747466e-08 8.8733252e-12)
(0.021082931 1.1433891e-08 1.0420019e-11)
(0.021082935 1.6314848e-08 6.7682307e-12)
(0.021082932 -1.0062777e-08 6.9430825e-12)
(0.02108293 -1.4967656e-08 6.6659777e-12)
(0.024207449 1.1058059e-08 7.6854117e-12)
(0.024207453 1.6572183e-08 5.0903394e-12)
(0.024207449 -9.748401e-09 5.3139165e-12)
(0.024207447 -1.5281265e-08 4.9807083e-12)
(0.027632976 1.0687231e-08 5.682829e-12)
(0.027632981 1.688713e-08 3.8120601e-12)
(0.027632977 -9.4432841e-09 4.0641771e-12)
(0.027632975 -1.5657985e-08 3.7043253e-12)
(0.031377948 1.0292366e-08 4.2137312e-12)
(0.031377953 1.7225411e-08 2.8449902e-12)
(0.031377948 -9.1180995e-09 3.1083599e-12)
(0.031377947 -1.6062771e-08 2.7438995e-12)
(0.035461635 9.8460143e-09 3.1328896e-12)
(0.035461641 1.7551204e-08 2.1179849e-12)
(0.035461636 -8.7449258e-09 2.3776119e-12)
(0.035461635 -1.6458969e-08 2.0252443e-12)
(0.039904119 9.3245539e-09 2.3352734e-12)
(0.039904126 1.7829452e-08 1.5739665e-12)
(0.039904121 -8.299504e-09 1.8184838e-12)
(0.039904119 -1.6810633e-08 1.4901801e-12)
(0.044726165 8.7095995e-09 1.744352e-12)
(0.044726174 1.802735e-08 1.163752e-12)
(0.044726168 -7.7626794e-09 1.3901159e-12)
(0.044726166 -1.7084072e-08 1.0938508e-12)
(0.049949046 7.9887226e-09 1.3047548e-12)
(0.049949056 1.8115265e-08 8.5392479e-13)
(0.04994905 -7.1211563e-09 1.0615218e-12)
(0.049949047 -1.7248709e-08 8.0164813e-13)
(0.055594311 7.1556565e-09 9.7665424e-13)
(0.055594323 1.8067074e-08 6.2490536e-13)
(0.055594316 -6.367747e-09 8.0938719e-13)
(0.055594313 -1.7277459e-08 5.8710536e-13)
(0.061683535 6.2101675e-09 7.3103108e-13)
(0.06168355 1.786015e-08 4.5732401e-13)
(0.061683542 -5.501288e-09 6.1588277e-13)
(0.061683539 -1.7146811e-08 4.301979e-13)
(0.068238051 5.1577324e-09 5.4671875e-13)
(0.068238068 1.7475331e-08 3.3531888e-13)
(0.068238059 -4.5263513e-09 4.6738265e-13)
(0.068238055 -1.6836769e-08 3.1587407e-13)
(0.075278667 4.0091123e-09 4.0814597e-13)
(0.075278686 1.6896848e-08 2.4685817e-13)
(0.075278677 -3.4528478e-09 3.5348319e-13)
(0.075278673 -1.6330789e-08 2.328073e-13)
(0.082825389 2.7798716e-09 3.0382806e-13)
(0.082825411 1.6112296e-08 1.8292599e-13)
(0.082825402 -2.2955698e-09 2.6622158e-13)
(0.082825397 -1.5615767e-08 1.7256703e-13)
(0.090897143 1.4898577e-09 2.2526002e-13)
(0.090897166 1.5112725e-08 1.3668084e-13)
(0.090897157 -1.07369e-09 1.9948311e-13)
(0.090897152 -1.4682135e-08 1.2890351e-13)
(0.09951149 1.6263902e-10 1.6610652e-13)
(0.099511516 1.3892834e-08 1.0246716e-13)
(0.099511506 1.8978945e-10 1.4855482e-13)
(0.099511502 -1.3524067e-08 9.7199095e-14)
(0.10868436 -1.1751198e-09 1.2167227e-13)
(0.10868439 1.2451269e-08 7.755812e-14)
(0.10868438 1.4686508e-09 1.0984878e-13)
(0.10868437 -1.2139797e-08 7.4077663e-14)
(0.11842979 -2.4943593e-09 8.8416017e-14)
(0.11842982 1.0791038e-08 5.9396036e-14)
(0.11842981 2.7341605e-09 8.0584203e-14)
(0.1184298 -1.0532021e-08 5.7095752e-14)
(0.12875965 -3.764432e-09 6.3652963e-14)
(0.12875968 8.9199665e-09 4.6018059e-14)
(0.12875967 3.9558801e-09 5.8597391e-14)
(0.12875967 -8.708358e-09 4.4493009e-14)
(0.13968344 -4.9540279e-09 4.5335542e-14)
(0.13968347 6.851199e-09 3.6037881e-14)
(0.13968346 5.1025947e-09 4.2203319e-14)
(0.13968346 -6.6818475e-09 3.5015597e-14)
(0.15120801 -6.0322186e-09 3.1898738e-14)
(0.15120804 4.6036993e-09 2.8476272e-14)
(0.15120803 6.143364e-09 3.0091022e-14)
(0.15120803 -4.4714513e-09 2.7777172e-14)
(0.16333739 -6.9696212e-09 2.2145077e-14)
(0.16333743 2.2027398e-09 2.2650175e-14)
(0.16333742 7.0486972e-09 2.1232967e-14)
(0.16333742 -2.1025319e-09 2.2154843e-14)
(0.17607261 -7.7396647e-09 1.5151362e-14)
(0.17607265 -3.1965609e-10 1.8083585e-14)
(0.17607263 7.7918301e-09 1.4833493e-14)
(0.17607264 3.9271283e-10 1.7710722e-14)
(0.18941148 -8.3199297e-09 1.0208918e-14)
(0.18941152 -2.9243306e-09 1.4446237e-14)
(0.1894115 8.3500762e-09 1.0272918e-14)
(0.18941151 2.9748782e-09 1.4152634e-14)
(0.2033485 -8.6935128e-09 6.7781748e-15)
(0.20334854 -5.5646893e-09 1.151311e-14)
(0.20334853 8.7062039e-09 7.0727088e-15)
(0.20334854 5.5970593e-09 1.1261492e-14)
(0.21787477 -8.8503586e-09 4.4476331e-15)
(0.21787481 -8.1864966e-09 9.1259754e-15)
(0.21787479 8.8497793e-09 4.865819e-15)
(0.2178748 8.2046568e-09 8.8972625e-15)
(0.23297783 -8.7884766e-09 2.9007703e-15)
(0.23297787 -1.0727786e-08 7.1721957e-15)
(0.23297786 8.7783891e-09 3.3731498e-15)
(0.23297787 1.0735297e-08 6.9628267e-15)
(0.2486417 -8.5149327e-09 1.9034715e-15)
(0.24864174 -1.3118923e-08 5.5702423e-15)
(0.24864173 8.4986399e-09 2.3852558e-15)
(0.24864174 1.31189e-08 5.3812611e-15)
(0.26484685 -8.0464876e-09 1.2833037e-15)
(0.26484688 -1.5282885e-08 4.2652555e-15)
(0.26484687 8.0268005e-09 1.7469163e-15)
(0.26484688 1.5277968e-08 4.0879652e-15)
(0.28157018 -7.4097185e-09 9.137835e-16)
(0.28157021 -1.7135887e-08 3.207427e-15)
(0.28157019 7.3889254e-09 1.3467789e-15)
(0.28157021 1.7128211e-08 3.0401407e-15)
(0.29878515 -6.64043e-09 7.0542187e-16)
(0.29878518 -1.8588563e-08 2.3600195e-15)
(0.29878516 6.6202678e-09 1.0966949e-15)
(0.29878519 1.8579735e-08 2.199102e-15)
(0.31646186 -5.7821377e-09 5.9961499e-16)
(0.31646189 -1.9548059e-08 1.6854532e-15)
(0.31646187 5.7637681e-09 9.4250328e-16)
(0.31646189 1.9539142e-08 1.5365191e-15)
(0.33456718 -4.883407e-09 5.4884589e-16)
(0.33456721 -1.9921576e-08 1.1522136e-15)
(0.33456719 4.8674085e-09 8.5165025e-16)
(0.33456721 1.9913096e-08 1.0239792e-15)
(0.35306495 -3.9938944e-09 5.2661206e-16)
(0.35306497 -1.9622264e-08 7.3902941e-16)
(0.35306495 3.9802836e-09 7.9601572e-16)
(0.35306497 1.9614248e-08 6.3793232e-16)
(0.37191615 -3.1591019e-09 5.096643e-16)
(0.37191617 -1.8578978e-08 4.3054787e-16)
(0.37191614 3.1474155e-09 7.5796044e-16)
(0.37191617 1.8571049e-08 3.5238193e-16)
(0.3910792 -2.4141234e-09 4.9362574e-16)
(0.39107922 -1.6751353e-08 2.1568316e-16)
(0.39107919 2.4036124e-09 7.1663436e-16)
(0.39107922 1.6742922e-08 1.531315e-16)
(0.41051022 -1.7770839e-09 4.5581644e-16)
(0.41051022 -1.4148771e-08 8.6941915e-17)
(0.4105102 1.7670573e-09 6.6359411e-16)
(0.41051023 1.4139344e-08 3.1467813e-17)
(0.43016329 -1.2439735e-09 3.9233441e-16)
(0.43016329 -1.0851597e-08 2.7602754e-17)
(0.43016327 1.2341942e-09 5.7547753e-16)
(0.43016329 1.0841032e-08 -1.4503517e-17)
(0.44999085 -7.9215768e-10 2.9352676e-16)
(0.44999085 -7.0749572e-09 2.7532053e-17)
(0.44999082 7.8259453e-10 4.3658036e-16)
(0.44999085 7.0638909e-09 -5.7292552e-18)
(0.469944 -3.9998016e-10 1.7100018e-16)
(0.469944 -3.3653918e-09 5.1010994e-17)
(0.46994398 3.9394914e-10 2.6022729e-16)
(0.469944 3.3534572e-09 4.7163674e-18)
(0.4899729 -1.2261613e-10 7.6721847e-17)
(0.48997289 -8.6394064e-10 1.6056054e-17)
(0.48997289 1.2122786e-10 8.8922999e-17)
(0.4899729 8.5963096e-10 -3.9803299e-17)
)
;

boundaryField
{
    movingWall
    {
        type            fixedValue;
        value           uniform (0.5 0 0);
    }
    CPLReceiveMD
    {
        type            fixedValue;
        value           uniform (0.016455498 0 0);
    }
    streamwiseIn
    {
        type            cyclic;
    }
    streamwiseOut
    {
        type            cyclic;
    }
    front
    {
        type            cyclic;
    }
    back
    {
        type            cyclic;
    }
    procBoundary0to1
    {
        type            processor;
        value           nonuniform List<vector> 
240
(
(0.0015777071 -9.1112703e-10 -1.7739271e-11)
(0.0015777241 -7.5320996e-10 -6.8160742e-12)
(0.0015777236 9.5892874e-10 -2.5638053e-11)
(0.0015777072 8.3175001e-10 -1.8164227e-12)
(-0.0055788868 -3.0818908e-09 -1.6497748e-11)
(-0.0055788582 -2.7592016e-09 -7.5000181e-12)
(-0.0055788604 3.3600485e-09 -2.7121247e-11)
(-0.0055788849 3.0331464e-09 -2.1148316e-12)
(-0.0070091531 -5.4132092e-09 -1.7594466e-11)
(-0.0070091297 -5.4065093e-09 -8.6728427e-12)
(-0.0070091316 6.1082134e-09 -2.8444513e-11)
(-0.007009151 5.9282583e-09 -4.3124612e-12)
(-0.0065162228 -5.8410255e-09 -2.0008064e-11)
(-0.0065162211 -6.2057166e-09 -9.4354795e-12)
(-0.0065162232 6.9413263e-09 -2.8737992e-11)
(-0.0065162197 7.0200783e-09 -6.275111e-12)
(-0.0051597109 -3.0316655e-09 -2.1351673e-11)
(-0.0051597325 -3.7529198e-09 -9.3463376e-12)
(-0.0051597341 4.4953905e-09 -2.7301175e-11)
(-0.0051597086 4.86284e-09 -6.8821178e-12)
(-0.0035841596 1.8519196e-09 -2.1132786e-11)
(-0.0035841934 9.8642963e-10 -8.4615677e-12)
(-0.0035841946 -9.7538437e-11 -2.4784286e-11)
(-0.003584159 3.8889423e-10 -6.5389909e-12)
(-0.0021234182 7.053186e-09 -1.9699329e-11)
(-0.0021234527 6.3074888e-09 -7.1845637e-12)
(-0.0021234536 -5.0913915e-09 -2.1806959e-11)
(-0.0021234192 -4.713098e-09 -5.649503e-12)
(-0.00085204396 1.1362884e-08 -1.7731779e-11)
(-0.00085207128 1.0929162e-08 -5.7546074e-12)
(-0.00085207199 -9.2663755e-09 -1.874976e-11)
(-0.00085204597 -9.1607664e-09 -4.5383254e-12)
(0.00028117953 1.4263157e-08 -1.572331e-11)
(0.00028116196 1.4233502e-08 -4.3995998e-12)
(0.00028116138 -1.2090657e-08 -1.5825185e-11)
(0.00028117717 -1.233783e-08 -3.4301903e-12)
(0.0013553091 1.5849071e-08 -1.3530281e-11)
(0.0013553002 1.6229208e-08 -3.2281263e-12)
(0.0013552996 -1.3645007e-08 -1.3121057e-11)
(0.0013553068 -1.4250224e-08 -2.4347093e-12)
(0.0024376341 1.6475819e-08 -1.1186553e-11)
(0.0024376314 1.7232812e-08 -2.2625693e-12)
(0.0024376309 -1.4272901e-08 -1.062798e-11)
(0.0024376321 -1.520902e-08 -1.6039819e-12)
(0.0035778174 1.6489402e-08 -9.0032715e-12)
(0.0035778186 1.7591878e-08 -1.5147771e-12)
(0.003577818 -1.431333e-08 -8.3709162e-12)
(0.0035778156 -1.5555319e-08 -9.6267815e-13)
(0.0048129502 1.6139067e-08 -7.097912e-12)
(0.0048129538 1.7571223e-08 -9.7105421e-13)
(0.0048129531 -1.4009203e-08 -6.4671374e-12)
(0.0048129486 -1.5547036e-08 -5.1140661e-13)
(0.006172934 1.558551e-08 -5.474362e-12)
(0.0061729389 1.7346585e-08 -6.0050227e-13)
(0.006172938 -1.3514611e-08 -4.8987239e-12)
(0.0061729325 -1.5353457e-08 -2.2157847e-13)
(0.0076836137 1.4932512e-08 -4.0846051e-12)
(0.0076836193 1.7033046e-08 -3.6585814e-13)
(0.0076836182 -1.2927298e-08 -3.6277911e-12)
(0.0076836123 -1.50844e-08 -6.2815112e-14)
(0.0093681446 1.4249515e-08 -2.9609035e-12)
(0.0093681503 1.6710516e-08 -2.3271677e-13)
(0.009368149 -1.2314248e-08 -2.6167981e-12)
(0.0093681432 -1.4816069e-08 5.8295993e-15)
(0.011247552 1.3584972e-08 -2.0769845e-12)
(0.011247557 1.6437027e-08 -1.6930935e-13)
(0.011247556 -1.1723359e-08 -1.8285699e-12)
(0.01124755 -1.460417e-08 1.4592028e-14)
(0.013341109 1.2971476e-08 -1.3983128e-12)
(0.013341115 1.6252925e-08 -1.4975224e-13)
(0.013341113 -1.1186444e-08 -1.2268785e-12)
(0.013341108 -1.4487645e-08 -1.5072668e-14)
(0.015666783 1.2425296e-08 -8.8870126e-13)
(0.015666788 1.618129e-08 -1.5525225e-13)
(0.015666786 -1.0719354e-08 -7.7722853e-13)
(0.015666782 -1.4487929e-08 -7.1249636e-14)
(0.018241751 1.1947186e-08 -5.1698621e-13)
(0.018241755 1.622825e-08 -1.7162085e-13)
(0.018241753 -1.0322661e-08 -4.4954698e-13)
(0.01824175 -1.4610271e-08 -1.2015018e-13)
(0.021082932 1.152478e-08 -2.5269052e-13)
(0.021082936 1.638473e-08 -1.8997075e-13)
(0.021082933 -9.9839298e-09 -2.1663952e-13)
(0.021082931 -1.4845798e-08 -1.6127925e-13)
(0.02420745 1.1136196e-08 -7.117205e-14)
(0.024207454 1.6629542e-08 -2.0473235e-13)
(0.02420745 -9.6811641e-09 -5.7314071e-14)
(0.024207448 -1.5173062e-08 -1.9160776e-13)
(0.027632977 1.0754143e-08 4.7220253e-14)
(0.027632982 1.6933117e-08 -2.1353666e-13)
(0.027632978 -9.3868039e-09 4.6669848e-14)
(0.027632976 -1.5562073e-08 -2.0969925e-13)
(0.031377949 1.0349702e-08 1.1989234e-13)
(0.031377954 1.726123e-08 -2.1561241e-13)
(0.031377949 -9.0715441e-09 1.1000046e-13)
(0.031377948 -1.5978078e-08 -2.1649658e-13)
(0.035461636 9.8954424e-09 1.5903848e-13)
(0.035461642 1.7578082e-08 -2.114516e-13)
(0.035461637 -8.7074464e-09 1.4401821e-13)
(0.035461636 -1.6384659e-08 -2.1384539e-13)
(0.03990412 9.3676875e-09 1.749018e-13)
(0.039904127 1.7848609e-08 -2.0183636e-13)
(0.039904122 -8.2702273e-09 1.5753844e-13)
(0.03990412 -1.6746062e-08 -2.037777e-13)
(0.044726166 8.7479428e-09 1.7527352e-13)
(0.044726175 1.8040064e-08 -1.8525834e-13)
(0.044726169 -7.7407165e-09 1.5735016e-13)
(0.044726167 -1.702873e-08 -1.8844223e-13)
(0.049949047 8.023621e-09 1.6566428e-13)
(0.049949057 1.8122787e-08 -1.6591075e-13)
(0.049949051 -7.1056205e-09 1.4837895e-13)
(0.049949048 -1.7202175e-08 -1.6974606e-13)
(0.055594312 7.1882632e-09 1.5014072e-13)
(0.055594324 1.8070524e-08 -1.4534152e-13)
(0.055594317 -6.3577728e-09 1.3423354e-13)
(0.055594314 -1.7239367e-08 -1.4930334e-13)
(0.061683536 6.2414306e-09 1.316197e-13)
(0.061683551 1.7860598e-08 -1.2471163e-13)
(0.061683543 -5.496042e-09 1.1749499e-13)
(0.06168354 -1.7116822e-08 -1.2839752e-13)
(0.068238052 5.1883932e-09 1.1215364e-13)
(0.068238069 1.7473809e-08 -1.0490473e-13)
(0.068238061 -4.5250412e-09 9.9973394e-14)
(0.068238056 -1.6814564e-08 -1.0805214e-13)
(0.075278668 4.0397124e-09 9.3123164e-14)
(0.075278687 1.6894343e-08 -8.6515828e-14)
(0.075278678 -3.4547273e-09 8.2890038e-14)
(0.075278674 -1.6316058e-08 -8.8970914e-14)
(0.08282539 2.8107656e-09 7.5407002e-14)
(0.082825412 1.610974e-08 -6.9918411e-14)
(0.082825403 -2.2999396e-09 6.7027136e-14)
(0.082825398 -1.5608206e-08 -7.1638948e-14)
(0.090897144 1.5212311e-09 5.9524021e-14)
(0.090897167 1.5110979e-08 -5.5232458e-14)
(0.090897158 -1.0798962e-09 5.2844247e-14)
(0.090897153 -1.4681452e-08 -5.6335808e-14)
(0.099511491 1.9452849e-10 4.5727511e-14)
(0.099511517 1.3892687e-08 -4.2252741e-14)
(0.099511507 1.8235963e-10 4.0561081e-14)
(0.099511503 -1.3529981e-08 -4.3158587e-14)
(0.10868436 -1.1428048e-09 3.4063043e-14)
(0.10868439 1.2453447e-08 -3.1333481e-14)
(0.10868438 1.4605739e-09 3.02087e-14)
(0.10868438 -1.2152043e-08 -3.2083077e-14)
(0.11842979 -2.4618151e-09 2.4451578e-14)
(0.11842982 1.0796186e-08 -2.2408845e-14)
(0.11842981 2.7259804e-09 2.1711116e-14)
(0.11842981 -1.0550344e-08 -2.30024e-14)
(0.12875965 -3.7319403e-09 1.673641e-14)
(0.12875969 8.9286414e-09 -1.5282802e-14)
(0.12875967 3.9481104e-09 1.4919364e-14)
(0.12875967 -8.7325141e-09 -1.5747301e-14)
(0.13968344 -4.9219366e-09 1.0714979e-14)
(0.13968347 6.8638633e-09 -9.7405748e-15)
(0.13968346 5.0957196e-09 9.6439481e-15)
(0.13968346 -6.7115965e-09 -1.0110854e-14)
(0.15120801 -6.0009238e-09 6.1577104e-15)
(0.15120804 4.6207206e-09 -5.5538077e-15)
(0.15120803 6.137837e-09 5.6746627e-15)
(0.15120803 -4.5065476e-09 -5.8690471e-15)
(0.16333739 -6.9395504e-09 2.83641e-15)
(0.16333743 2.2243869e-09 -2.5078484e-15)
(0.16333742 7.0449375e-09 2.7997698e-15)
(0.16333742 -2.1427135e-09 -2.7935914e-15)
(0.17607261 -7.7112602e-09 5.2773308e-16)
(0.17607265 -2.9321619e-10 -3.9476728e-16)
(0.17607263 7.790217e-09 8.152214e-16)
(0.17607264 3.4773797e-10 -6.7306623e-16)
(0.18941148 -8.2936309e-09 -9.8011173e-16)
(0.18941152 -2.8930369e-09 9.7947526e-16)
(0.1894115 8.350941e-09 -4.644811e-16)
(0.18941151 2.9254451e-09 6.9680427e-16)
(0.2033485 -8.6697423e-09 -1.8709552e-15)
(0.20334854 -5.5285912e-09 1.782261e-15)
(0.20334853 8.7098215e-09 -1.2019807e-15)
(0.20334854 5.5435637e-09 1.4896673e-15)
(0.21787477 -8.8295073e-09 -2.3007585e-15)
(0.21787481 -8.1457592e-09 2.1617217e-15)
(0.21787479 8.8563574e-09 -1.5472105e-15)
(0.2178748 8.1475736e-09 1.8615739e-15)
(0.23297783 -8.7708837e-09 -2.4049014e-15)
(0.23297787 -1.0682697e-08 2.240114e-15)
(0.23297786 8.7880576e-09 -1.6160078e-15)
(0.23297787 1.0675196e-08 1.9392241e-15)
(0.2486417 -8.5008665e-09 -2.2883687e-15)
(0.24864174 -1.3069899e-08 2.1186733e-15)
(0.24864173 8.5114394e-09 -1.5049969e-15)
(0.24864174 1.3056464e-08 1.8197517e-15)
(0.26484685 -8.036125e-09 -2.0329967e-15)
(0.26484688 -1.5230484e-08 1.8771796e-15)