/*--------------------------------*- C++ -*----------------------------------*\
| =========                 |                                                 |
| \\      /  F ield         | OpenFOAM: The Open Source CFD Toolbox           |
|  \\    /   O peration     | Version:  3.0.1                                 |
|   \\  /    A nd           | Web:      www.OpenFOAM.org                      |
|    \\/     M anipulation  |                                                 |
\*---------------------------------------------------------------------------*/
FoamFile
{
    version     2.0;
    format      ascii;
    class       surfaceScalarField;
    location    "150";
    object      phi;
}
// * * * * * * * * * * * * * * * * * * * * * * * * * * * * * * * * * * * * * //

dimensions      [0 3 -1 0 0 0 0];

internalField   nonuniform List<scalar> 
1072
(
-0.5215919
3.9731248e-07
1.251369e-08
-0.52159196
2.9547564e-08
5.9952354e-09
-0.52159191
-8.1291989e-08
-6.3932442e-09
-1.5583516e-08
-2.7359704e-09
-0.39622903
4.0252119e-07
8.3724561e-09
-0.39622907
9.9247255e-08
3.3763689e-09
-0.39622904
-9.5278643e-08
-2.7393971e-09
-6.6095171e-08
-6.0203761e-10
-0.33956277
5.5555032e-07
7.3037761e-09
-0.339563
3.1353265e-07
-5.1458915e-10
-0.33956276
-2.882827e-07
4.7509179e-10
-2.7263185e-07
1.6689835e-09
-0.27125421
7.9111722e-07
5.5649406e-09
-0.2712545
5.8418625e-07
-2.1221947e-09
-0.2712542
-5.7650694e-07
1.2487733e-09
-5.4314461e-07
2.1038492e-09
-0.20624573
1.1265345e-06
4.0870991e-09
-0.20624609
9.3264722e-07
-2.5656907e-09
-0.20624573
-9.5828891e-07
1.2129958e-09
-8.9342055e-07
1.883205e-09
-0.15406756
1.4569296e-06
3.1890388e-09
-0.15406791
1.2791367e-06
-2.137464e-09
-0.15406757
-1.3210577e-06
7.9649632e-10
-1.2376882e-06
1.4287266e-09
-0.1155342
1.6714429e-06
2.6151449e-09
-0.11553444
1.5229507e-06
-1.3865239e-09
-0.11553423
-1.555174e-06
4.4858633e-10
-1.4742067e-06
1.0791312e-09
-0.087939088
1.7406927e-06
2.1705817e-09
-0.087939183
1.6281793e-06
-6.4417238e-10
-0.087939123
-1.6345006e-06
2.5481109e-10
-1.5684779e-06
9.0773775e-10
-0.068047203
1.6922688e-06
1.7935259e-09
-0.068047178
1.6140861e-06
-4.6300806e-11
-0.068047237
-1.5897348e-06
1.762238e-10
-1.5417715e-06
8.5827748e-10
-0.053197823
1.5728652e-06
1.4743362e-09
-0.053197721
1.522845e-06
3.7527985e-10
-0.053197851
-1.4699928e-06
1.6106512e-10
-1.4379111e-06
8.5837485e-10
-0.04151072
1.4256269e-06
1.215623e-09
-0.041510584
1.3966925e-06
6.3464711e-10
-0.041510742
-1.3201373e-06
1.7455853e-10
-1.3001779e-06
8.5670644e-10
-0.031766597
1.2816259e-06
1.0161296e-09
-0.03176646
1.2678067e-06
7.6257206e-10
-0.031766613
-1.1723922e-06
1.9893259e-10
-1.1612709e-06
8.2673654e-10
-0.023214051
1.1592527e-06
8.6644488e-10
-0.023213932
1.1563997e-06
7.9245815e-10
-0.023214062
-1.0458883e-06
2.2680571e-10
-1.0415621e-06
7.607984e-10
-0.01539563
1.0668224e-06
7.5763217e-10
-0.015395541
1.0726084e-06
7.5468773e-10
-0.01539564
-9.4940721e-07
2.5624502e-10
-9.5113881e-07
6.6239215e-10
-0.0080173503
1.0058627e-06
6.8459128e-10
-0.0080172928
1.0194986e-06
6.7437268e-10
-0.0080173589
-8.8477009e-07
2.8677739e-10
-8.9291865e-07
5.3979071e-10
-0.00086042703
9.7399498e-07
6.3956722e-10
-0.00086040035
9.9588768e-07
5.7087607e-10
-0.00086043597
-8.497695e-07
3.180709e-10
-8.6553684e-07
4.0145144e-10
0.0062737399
9.6703098e-07
6.1785163e-10
0.0062737391
9.9850656e-07
4.5826445e-10
0.0062737296
-8.4030992e-07
3.4979997e-10
-8.6554637e-07
2.565362e-10
0.013595186
9.8031946e-07
6.1441051e-10
0.013595162
1.0234408e-06
3.4625668e-10
0.013595174
-8.5177842e-07
3.8159655e-10
-8.8887183e-07
1.1094749e-10
0.021341913
1.0094846e-06
6.2462359e-10
0.021341869
1.0669588e-06
2.4144536e-10
0.021341898
-8.7979973e-07
4.1332667e-10
-9.3163475e-07
-3.5246565e-11
0.02978754
1.0507337e-06
6.4436737e-10
0.02978748
1.1258957e-06
1.4584207e-10
0.029787522
-9.2055774e-07
4.4501134e-10
-9.9054158e-07
-1.7744372e-10
0.039244356
1.1008933e-06
6.6999099e-10
0.039244283
1.1977366e-06
6.1084658e-11
0.039244334
-9.7084212e-07
4.7660711e-10
-1.0630351e-06
-2.8187968e-10
0.050064456
1.1572997e-06
6.9842633e-10
0.050064371
1.2805317e-06
-1.2560169e-11
0.050064429
-1.0279398e-06
5.079728e-10
-1.1470631e-06
-3.8261204e-10
0.062640528
1.2176232e-06
7.2712195e-10
0.062640432
1.3727282e-06
-7.5527715e-11
0.062640495
-1.089467e-06
5.3937345e-10
-1.2409943e-06
-4.7480204e-10
0.077407031
1.2796853e-06
7.5398662e-10
0.077406927
1.4729789e-06
-1.2870101e-10
0.077406992
-1.1531913e-06
5.7128185e-10
-1.343414e-06
-5.5753064e-10
0.094842003
1.3413017e-06
7.7734886e-10
0.094841892
1.5799607e-06
-1.7340542e-10
0.094841956
-1.2168758e-06
6.0396864e-10
-1.4529397e-06
-6.3025092e-10
0.11546939
1.4001667e-06
7.9590286e-10
0.11546927
1.6922211e-06
-2.1100202e-10
0.11546934
-1.2781636e-06
6.3659784e-10
-1.5680655e-06
-6.9269251e-10
0.13986166
1.4537855e-06
8.0868403e-10
0.13986153
1.8080414e-06
-2.3420307e-10
0.13986159
-1.3345116e-06
6.6866829e-10
-1.6870407e-06
-7.4476925e-10
0.16864227
1.4994564e-06
8.1506234e-10
0.16864215
1.9253845e-06
-2.5285436e-10
0.1686422
-1.3831724e-06
6.9964712e-10
-1.8077839e-06
-7.8652143e-10
0.20248774
1.5342969e-06
8.146663e-10
0.20248762
2.0418201e-06
-2.6532322e-10
0.20248766
-1.4212211e-06
7.2896359e-10
-1.9278293e-06
-8.1807981e-10
0.24212878
1.5553113e-06
8.0733668e-10
0.24212866
2.1545041e-06
-2.7186348e-10
0.24212869
-1.4456235e-06
7.5599235e-10
-2.0443012e-06
-8.3964768e-10
0.28835029
1.5594933e-06
7.9308982e-10
0.28835017
2.2601783e-06
-2.7266973e-10
0.28835018
-1.4533391e-06
7.8003939e-10
-2.1539138e-06
-8.5148947e-10
0.34198981
1.5439586e-06
7.7208733e-10
0.34198971
2.3551943e-06
-2.678831e-10
0.3419897
-1.441453e-06
8.0034816e-10
-2.2529938e-06
-8.53925e-10
0.40393431
1.5061003e-06
7.4461275e-10
0.40393422
2.4355591e-06
-2.5759799e-10
0.40393419
-1.4073319e-06
8.1611317e-10
-2.3375254e-06
-8.473281e-10
0.47511495
1.443761e-06
7.1105467e-10
0.47511489
2.4970037e-06
-2.4188007e-10
0.47511483
-1.3487952e-06
8.2650267e-10
-2.4032191e-06
-8.3212896e-10
0.55649986
1.3554125e-06
6.7189498e-10
0.55649981
2.5350771e-06
-2.1995647e-10
0.55649973
-1.2642953e-06
8.3068547e-10
-2.445606e-06
-8.0881926e-10
0.64908465
1.2403349e-06
6.2770157e-10
0.64908464
2.545274e-06
-1.9349793e-10
0.64908453
-1.1530955e-06
8.2786193e-10
-2.4601609e-06
-7.7795975e-10
0.7538809
1.0987826e-06
5.7911311e-10
0.75388092
2.5231852e-06
-1.6159978e-10
0.75388078
-1.0154358e-06
8.1729083e-10
-2.4424564e-06
-7.4018852e-10
0.87190235
9.3212472e-07
5.2683277e-10
0.87190241
2.4646882e-06
-1.2430002e-10
0.87190224
-8.5267343e-07
7.9832996e-10
-2.3883521e-06
-6.9622843e-10
1.0041492
7.4294694e-07
4.7161797e-10
1.0041493
2.3661715e-06
-8.1681865e-11
1.0041491
-6.6738323e-07
7.7047568e-10
-2.2942183e-06
-6.468924e-10
1.1515906
5.3509861e-07
4.1426707e-10
1.1515907
2.224792e-06
-3.3866645e-11
1.1515905
-4.6340502e-07
7.3340238e-10
-2.1571926e-06
-5.9308555e-10
1.3151453
3.1367199e-07
3.5560189e-10
1.3151455
2.0387624e-06
1.8976845e-11
1.3151453
-2.4582206e-07
6.8700143e-10
-1.9754675e-06
-5.3580303e-10
1.4956618
8.4900891e-08
2.9644635e-10
1.495662
1.8076591e-06
7.6622501e-11
1.4956618
-2.0859329e-08
6.3141811e-10
-1.7485987e-06
-4.7612138e-10
1.6938968
-1.4403026e-07
2.3760117e-10
1.6938971
1.5327413e-06
1.3877946e-10
1.6938968
2.0430782e-07
5.6708558e-10
-1.4778228e-06
-4.1518316e-10
1.9104942
-3.6527053e-07
1.7981471e-10
1.9104945
1.2172617e-06
2.0508718e-10
1.9104943
4.2183798e-07
4.947546e-10
-1.1663696e-06
-3.5417381e-10
2.1459637
-5.7067618e-07
1.237522e-10
2.145964
8.6675153e-07
2.7511173e-10
2.1459638
6.2359741e-07
4.1551759e-10
-8.1974698e-07
-2.9429056e-10
2.4006607
-7.5226161e-07
6.9962377e-11
2.4006611
4.8925387e-07
3.4834143e-10
2.4006609
8.0161044e-07
3.3082487e-10
-4.459752e-07
-2.3670394e-10
2.6747677
-9.0270463e-07
1.884468e-11
2.674768
9.547759e-08
4.2417783e-10
2.6747679
9.4856354e-07
2.4249129e-10
-5.5742629e-08
-1.825138e-10
2.9682771
-1.0158721e-06
-2.9381411e-11
2.9682775
-3.011598e-07
5.0191305e-10
2.9682774
1.0583287e-06
1.5268386e-10
3.3754859e-07
-1.3269947e-10
3.2809779
-1.0873213e-06
-7.4702349e-11
3.2809783
-6.846372e-07
5.8068522e-10
3.2809782
1.1264609e-06
6.3897988e-11
7.1788356e-07
-8.8075284e-11
3.6124444
-1.1147234e-06
-1.1732487e-10
3.6124448
-1.0366278e-06
6.5939092e-10
3.6124448
1.1506161e-06
-2.1111577e-11
1.0669271e-06
-4.92326e-11
3.9620298
-1.0981486e-06
-1.5767229e-10
3.9620301
-1.3370488e-06
7.3654197e-10
3.9620301
1.1308304e-06
-9.9439869e-11
1.364567e-06
-1.6490842e-11
4.328863
-1.040158e-06
-1.9634789e-10
4.3288632
-1.5649467e-06
8.1006193e-10
4.3288633
1.0696042e-06
-1.6820603e-10
1.5897937e-06
1.0168461e-11
4.7118508
-9.4565349e-07
-2.3404562e-10
4.7118509
-1.6998429e-06
8.7703107e-10
4.711851
9.7174923e-07
-2.2475179e-10
1.7220425e-06
3.1196529e-11
5.1096844
-8.2147873e-07
-2.7138823e-10
5.1096844
-1.7237292e-06
9.3342752e-10
5.1096845
8.439915e-07
-2.6692297e-10
1.7431962e-06
4.7616425e-11
5.5208504
-6.7582402e-07
-3.0867037e-10
5.5208503
-1.62402e-06
9.7394882e-10
5.5208505
6.9439394e-07
-2.9317461e-10
1.6405563e-06
6.1230065e-11
5.9436473
-5.1761683e-07
-3.4551473e-10
5.9436471
-1.3979342e-06
9.9212736e-10
5.9436473
5.317846e-07
-3.0227134e-10
1.4112705e-06
7.485475e-11
6.3762054
-3.562647e-07
-3.8051374e-10
6.3762051
-1.0589406e-06
9.8152533e-10
6.3762052
3.6556833e-07
-2.922305e-10
1.0688497e-06
9.2105316e-11
6.8165116
-2.0233377e-07
-4.1153203e-10
6.8165112
-6.4579754e-07
9.3778467e-10
6.8165113
2.0650464e-07
-2.5776426e-10
6.523065e-07
1.1612309e-10
7.2624372
-7.1068585e-08
-4.3615828e-10
7.2624368
-2.3770669e-07
8.6203017e-10
7.2624369
7.0545082e-08
-1.9594757e-10
2.4135113e-07
1.4283989e-10
7.7117689
-4.0918725e-10
7.7117686
6.5865027e-10
7.7117687
-7.5979561e-11
1.5771017e-10
-0.5215919
3.5786784e-08
-0.52159196
-3.2471895e-08
-0.52159189
-3.810056e-08
-6.2507937e-09
-0.39622905
9.0924551e-08
-0.39622908
2.5847384e-08
-0.39622903
-7.4351867e-08
-7.1935198e-08
-0.33956273
3.295355e-07
-0.33956297
2.7534716e-07
-0.33956269
-3.0774618e-07
-3.084077e-07
-0.27125421
6.2463503e-07
-0.27125449
5.6506788e-07
-0.27125418
-6.07802e-07
-5.8829613e-07
-0.20624574
1.005159e-06
-0.2062461
9.2460181e-07
-0.20624572
-9.9310579e-07
-9.4150568e-07
-0.15406759
1.3641147e-06
-0.15406793
1.2731423e-06
-0.15406759
-1.3515553e-06
-1.2826168e-06
-0.11553426
1.5972347e-06
-0.11553449
1.5138166e-06
-0.11553428
-1.5785092e-06
-1.5130842e-06
-0.087939146
1.6803097e-06
-0.087939236
1.6148119e-06
-0.087939174
-1.6512775e-06
-1.6013781e-06
-0.068047254
1.6432834e-06
-0.068047225
1.5975196e-06
-0.068047282
-1.6017025e-06
-1.5699599e-06
-0.053197862
1.5336389e-06
-0.053197758
1.5046842e-06
-0.053197885
-1.4788016e-06
-1.462683e-06
-0.041510747
1.3947298e-06
-0.041510611
1.37837e-06
-0.041510765
-1.3269782e-06
-1.3224496e-06
-0.031766615
1.2577026e-06
-0.031766478
1.2503521e-06
-0.031766628
-1.178019e-06
-1.1815733e-06
-0.023214062
1.1410041e-06
-0.023213944
1.1404414e-06
-0.023214072
-1.0507424e-06
-1.0601639e-06
-0.015395638
1.0531001e-06
-0.01539555
1.0584618e-06
-0.015395646
-9.5373418e-07
-9.6817325e-07
-0.008017357
9.9563403e-07
-0.0080173004
1.0072638e-06
-0.0080173644
-8.8870241e-07
-9.0846942e-07
-0.0008604335
9.6645624e-07
-0.00086040744
9.8553268e-07
-0.00086044164
-8.533781e-07
-8.7968136e-07
0.0062737328
9.6153418e-07
0.0062737317
9.8992598e-07
0.006273723
-8.4363385e-07
-8.7837662e-07
0.013595178
9.7635492e-07
0.013595154
1.0164951e-06
0.013595166
-8.5484045e-07
-9.0049745e-07
0.021341903
1.0066569e-06
0.02134186
1.0615005e-06
0.021341888
-8.8261469e-07
-9.4217844e-07
0.029787529
1.0487382e-06
0.02978747
1.1217796e-06
0.029787511
-9.2313684e-07
-1.0001843e-06
0.039244344
1.0994987e-06
0.039244271
1.1948272e-06
0.039244321
-9.7319192e-07
-1.0718449e-06
0.050064442
1.1563291e-06
0.050064358
1.2787056e-06
0.050064414
-1.0300665e-06
-1.1551212e-06
0.062640511
1.2169383e-06
0.062640418
1.3718742e-06
0.062640478
-1.091376e-06
-1.2483799e-06
0.077407013
1.2791756e-06
0.077406912
1.4729998e-06
0.077406973
-1.1548851e-06
-1.3502006e-06
0.094841983
1.3408751e-06
0.094841875
1.5807573e-06
0.094841936
-1.2183524e-06
-1.4591911e-06
0.11546937
1.3997431e-06
0.11546926
1.6937001e-06
0.11546931
-1.2794184e-06
-1.5738334e-06
0.13986163
1.4532935e-06
0.13986151
1.8101349e-06
0.13986157
-1.3355381e-06
-1.6923628e-06
0.16864224
1.4988293e-06
0.16864212
1.92802e-06
0.16864217
-1.3839638e-06
-1.8126835e-06
0.20248771
1.5334714e-06
0.20248759
2.0449249e-06
0.20248763
-1.4217713e-06
-1.9323147e-06
0.24212875
1.5542272e-06
0.24212864
2.1580036e-06
0.24212866
-1.4459283e-06
-2.0483661e-06
0.28835025
1.558094e-06
0.28835015
2.2639955e-06
0.28835015
-1.4533972e-06
-2.1575383e-06
0.34198978
1.5421927e-06
0.34198968
2.3592482e-06
0.34198966
-1.4412672e-06
-2.2561452e-06
0.40393427
1.5039233e-06
0.40393419
2.4397636e-06
0.40393415
-1.4069102e-06
-2.3401596e-06
0.47511492
1.4411377e-06
0.47511485
2.5012675e-06
0.47511479
-1.3481526e-06
-2.4052827e-06
0.55649982
1.3523201e-06
0.55649978
2.5393057e-06
0.55649969
-1.2634544e-06
-2.447038e-06
0.64908461
1.2367649e-06
0.6490846
2.549364e-06
0.64908449
-1.1520879e-06
-2.4608949e-06
0.75388086
1.0947436e-06
0.75388088
2.5270285e-06
0.75388074
-1.0143032e-06
-2.4424237e-06
0.87190231
9.2764462e-07
0.87190237
2.4681733e-06
0.8719022
-8.5146732e-07
-2.3874845e-06
1.0041492
7.3807416e-07
1.0041493
2.369185e-06
1.0041491
-6.6616553e-07
-2.292451e-06
1.1515905
5.29903e-07
1.1515907
2.2272214e-06
1.1515905
-4.6224712e-07
-2.1544687e-06
1.3151453
3.0824447e-07
1.3151454
2.040499e-06
1.3151452
-2.4480349e-07
-1.9717413e-06
1.4956618
7.9351903e-08
1.495662
1.8086026e-06
1.4956617
-2.0065452e-08
-1.7438401e-06
1.6938968
-1.4957368e-07
1.693897
1.5328039e-06
1.6938968
2.04789e-07
-1.4720224e-06
1.9104942
-3.706692e-07
1.9104945
1.2163738e-06
1.9104942
4.219201e-07
-1.1595428e-06
2.1459636
-5.7578489e-07
2.145964
8.6486717e-07
2.1459638
6.2320101e-07
-8.1193896e-07
2.4006607
-7.5693684e-07
2.4006611
4.8635695e-07
2.4006609
8.0066915e-07
-4.3726531e-07
2.6747676
-9.0681376e-07
2.674768
9.1587459e-08
2.6747679
9.47031e-07
-4.6248603e-08
2.9682771
-1.0193039e-06
2.9682775
-3.0598313e-07
2.9682774
1.0561858e-06
3.4766715e-07
3.2809779
-1.0899973e-06
3.2809783
-6.9028908e-07
3.2809782
1.123723e-06
7.2842266e-07
3.6124444
-1.1166087e-06
3.6124448
-1.0429569e-06
3.6124448
1.1473392e-06
1.0776372e-06
3.9620298
-1.0992625e-06
3.9620301
-1.3438577e-06
3.9620301
1.1271154e-06
1.3751544e-06
4.328863
-1.0405796e-06
4.3288632
-1.5719969e-06
4.3288633
1.0655982e-06
1.5999246e-06
4.7118508
-9.455238e-07
4.711851
-1.7068638e-06
4.7118511
9.6764319e-07
1.731354e-06
5.1096844
-8.2099171e-07
5.1096844
-1.730437e-06
5.1096846
8.4001453e-07
1.7513161e-06
5.5208505
-6.752069e-07
5.5208504
-1.6301491e-06
5.5208505
6.9080751e-07
1.647142e-06
5.9436474
-5.1709697e-07
5.9436471
-1.4032965e-06
5.9436473
5.2888801e-07
1.416079e-06
6.3762055
-3.5602835e-07
6.3762051
-1.0635344e-06
6.3762053
3.6373618e-07
1.0718638e-06
6.8165116
-2.0249444e-07
6.8165112
-6.5002347e-07
6.8165114
2.063002e-07
6.5398673e-07
7.2624372
-7.16275e-08
7.2624368
-2.4213553e-07
7.2624369
7.2657902e-08
2.426247e-07
7.7117689
7.7117686
7.7117687
)
;

boundaryField
{
    movingWall
    {
        type            calculated;
        value           uniform 0;
    }
    CPLReceiveMD
    {
        type            calculated;
        value           uniform 0;
    }
    streamwiseIn
    {
        type            cyclic;
        value           nonuniform List<scalar> 
120
(
0.52159189
0.39622902
0.33956254
0.27125391
0.20624537
0.15406723
0.115534
0.087939029
0.068047262
0.053197952
0.041510876
0.031766749
0.023214179
0.015395728
0.0080174153
0.00086046205
-0.0062737304
-0.013595198
-0.021341941
-0.029787581
-0.039244406
-0.050064512
-0.062640587
-0.077407093
-0.094842064
-0.11546945
-0.13986171
-0.16864231
-0.20248777
-0.2421288
-0.28835029
-0.3419898
-0.40393427
-0.47511489
-0.55649977
-0.64908454
-0.75388076
-0.87190219
-1.004149
-1.1515904
-1.3151451
-1.4956616
-1.6938966
-1.910494
-2.1459635
-2.4006605
-2.6747675
-2.968277
-3.2809778
-3.6124444
-3.9620298
-4.328863
-4.7118509
-5.1096845
-5.5208506
-5.9436475
-6.3762056
-6.8165118
-7.2624373
-7.7117689
0.52159185
0.39622903
0.33956248
0.2712539
0.20624537
0.15406726
0.11553405
0.08793909
0.068047316
0.053197993
0.041510905
0.031766768
0.023214192
0.015395737
0.0080174222
0.00086046833
-0.006273724
-0.01359519
-0.021341932
-0.029787571
-0.039244395
-0.0500645
-0.062640574
-0.077407078
-0.094842048
-0.11546943
-0.13986169
-0.16864229
-0.20248775
-0.24212878
-0.28835026
-0.34198976
-0.40393424
-0.47511486
-0.55649973
-0.6490845
-0.75388073
-0.87190215
-1.004149
-1.1515903
-1.315145
-1.4956615
-1.6938966
-1.9104939
-2.1459634
-2.4006605
-2.6747675
-2.968277
-3.2809778
-3.6124444
-3.9620298
-4.3288631
-4.7118509
-5.1096845
-5.5208506
-5.9436475
-6.3762056
-6.8165118
-7.2624373
-7.7117689
)
;
    }
    streamwiseOut
    {
        type            cyclic;
        value           nonuniform List<scalar> 
120
(
-0.52159189
-0.39622902
-0.33956254
-0.27125391
-0.20624537
-0.15406723
-0.115534
-0.087939029
-0.068047262
-0.053197952
-0.041510876
-0.031766749
-0.023214179
-0.015395728
-0.0080174153
-0.00086046205
0.0062737304
0.013595198
0.021341941
0.029787581
0.039244406
0.050064512
0.062640587
0.077407093
0.094842064
0.11546945
0.13986171
0.16864231
0.20248777
0.2421288
0.28835029
0.3419898
0.40393427
0.47511489
0.55649977
0.64908454
0.75388076
0.87190219
1.004149
1.1515904
1.3151451
1.4956616
1.6938966
1.910494
2.1459635
2.4006605
2.6747675
2.968277
3.2809778
3.6124444
3.9620298
4.328863
4.7118509
5.1096845
5.5208506
5.9436475
6.3762056
6.8165118
7.2624373
7.7117689
-0.52159185
-0.39622903
-0.33956248
-0.2712539
-0.20624537
-0.15406726
-0.11553405
-0.08793909
-0.068047316
-0.053197993
-0.041510905
-0.031766768
-0.023214192
-0.015395737
-0.0080174222
-0.00086046833
0.006273724
0.01359519
0.021341932
0.029787571
0.039244395
0.0500645
0.062640574
0.077407078
0.094842048
0.11546943
0.13986169
0.16864229
0.20248775
0.24212878
0.28835026
0.34198976
0.40393424
0.47511486
0.55649973
0.6490845
0.75388073
0.87190215
1.004149
1.1515903
1.315145
1.4956615
1.6938966
1.9104939
2.1459634
2.4006605
2.6747675
2.968277
3.2809778
3.6124444
3.9620298
4.3288631
4.7118509
5.1096845
5.5208506
5.9436475
6.3762056
6.8165118
7.2624373
7.7117689
)
;
    }
    front
    {
        type            cyclic;
        value           nonuniform 0();
    }
    back
    {
        type            cyclic;
        value           nonuniform 0();
    }
    procBoundary0to1
    {
        type            processor;
        value           nonuniform List<scalar> 
240
(
5.4378273e-10
-4.5292094e-09
4.3306512e-09
5.5535254e-09
4.92193e-09
-2.8096528e-09
1.3035778e-09
3.0107769e-09
9.1471984e-09
5.2891269e-10
-1.0431104e-09
5.2977828e-10
8.7164181e-09
2.023072e-09
-1.3960066e-09
-7.2892944e-10
6.8615664e-09
2.3063264e-09
-1.1913237e-09
-1.302302e-09
4.732776e-09
1.7859202e-09
-6.2878713e-10
-1.3440211e-09
3.0447368e-09
1.0385152e-09
-1.332711e-10
-1.2080817e-09
1.9122141e-09
3.6944429e-10
8.4601643e-11
-1.075198e-09
1.1913366e-09
-1.2261272e-10
1.6554266e-10
-9.8155091e-10
7.3128725e-10
-4.3428806e-10
1.6807249e-10
-9.1058928e-10
4.2831836e-10
-6.0081105e-10
1.3375993e-10
-8.3955265e-10
2.2045224e-10
-6.6079806e-10
8.4959415e-11
-7.5427849e-10
9.6644051e-11
-6.474919e-10
3.1333445e-11
-6.5059664e-10
-1.5821983e-11
-5.8808746e-10
-2.3578386e-11
-5.3116645e-10
-5.7627034e-11
-5.0280387e-10
-7.8711677e-11
-4.0152343e-10
-1.5548898e-10
-4.0576642e-10
-1.3370914e-10
-2.6755117e-10
-2.4383826e-10
-3.0666479e-10
-1.8827079e-10
-1.3282485e-10
-3.2555265e-10
-2.1173726e-10
-2.4191773e-10
-2.2579421e-12
-4.0180798e-10
-1.2461119e-10
-2.9430704e-10
1.0930625e-10
-4.7289573e-10
-4.6761406e-11
-3.4520629e-10
2.5454568e-10
-5.3839533e-10
2.1380093e-11
-3.9418628e-10
3.6181004e-10
-5.9770899e-10
8.0038509e-11
-4.4071725e-10
4.5301327e-10
-6.5023741e-10
1.2976265e-10
-4.8506829e-10
5.3387928e-10
-6.9544143e-10
1.6755503e-10
-5.2791113e-10
6.058386e-10
-7.3288655e-10
2.0748951e-10
-5.6955702e-10
6.6912059e-10
-7.6222156e-10
2.3667921e-10
-6.0954352e-10
7.2362351e-10
-7.8323593e-10
2.5723723e-10
-6.4755745e-10
7.6918368e-10
-7.9587788e-10
2.7135659e-10
-6.832778e-10
8.0567106e-10
-8.0023056e-10
2.7989593e-10
-7.1633786e-10
8.3302389e-10
-7.9649035e-10
2.8320782e-10
-7.4629618e-10
8.5126063e-10
-7.849497e-10
2.8143298e-10
-7.726193e-10
8.6048117e-10
-7.6598316e-10
2.7461036e-10
-7.9468564e-10
8.6086487e-10
-7.4003763e-10
2.6271738e-10
-8.1180164e-10
8.5266879e-10
-7.076266e-10
2.4554487e-10
-8.2322597e-10
8.3622781e-10
-6.6932727e-10
2.2295332e-10
-8.2819977e-10
8.1195681e-10
-6.2577832e-10
1.9581046e-10
-8.2597894e-10
7.803554e-10
-5.7767216e-10
1.6335598e-10
-8.1586585e-10
7.4201314e-10
-5.2575244e-10
1.2562804e-10
-7.9725235e-10
6.976147e-10
-4.7080719e-10
8.2683824e-11
-7.696611e-10
6.4794298e-10
-4.136578e-10
3.4621226e-11
-7.3278674e-10
5.938797e-10
-3.5514336e-10
-1.8409508e-11
-6.8653613e-10
5.3640174e-10
-2.9610065e-10
-7.6196679e-11
-6.3106634e-10
4.765715e-10
-2.3733996e-10
-1.3846049e-10
-5.6681955e-10
4.1552061e-10
-1.7961693e-10
-2.048487e-10
-4.9455327e-10
3.5442601e-10
-1.2360206e-10
-2.7493373e-10
-4.153651e-10
2.9447837e-10
-6.9848107e-11
-3.4820885e-10
-3.3070932e-10
2.3684336e-10
-1.8757502e-11
-4.2407925e-10
-2.4240372e-10
1.8261695e-10
2.9447986e-11
-5.018398e-10
-1.5261739e-10
1.3277549e-10
7.4753216e-11
-5.806309e-10
-6.384733e-11
8.8131134e-11
1.173638e-10
-6.593506e-10
2.1150294e-11
4.9273468e-11
1.5770212e-10
-7.3651208e-10
9.9469547e-11
1.6520693e-11
1.9637077e-10
-8.1003981e-10
1.6822935e-10
-1.0146789e-11
2.3406338e-10
-8.7701486e-10
2.2477014e-10
-3.1180788e-11
2.7140215e-10
-9.3341565e-10
2.6693749e-10
-4.7604992e-11
3.0868146e-10
-9.739402e-10
2.931863e-10
-6.1221763e-11
3.4552381e-10
-9.921209e-10
3.022809e-10
-7.4848914e-11
3.8052318e-10
-9.8152071e-10
2.9223857e-10
-9.2101241e-11
4.115401e-10
-9.377813e-10
2.5777101e-10
-1.1612021e-10
4.361647e-10
-8.6202767e-10
1.9595301e-10
-1.4283773e-10
4.0919072e-10
-6.5864907e-10
7.5982713e-11
-1.5770887e-10
)
;
    }
    procBoundary0to1throughfront
    {
        type            processorCyclic;
        value           nonuniform List<scalar> 
240
(
1.2408034e-08
8.7584053e-09
8.2875162e-09
7.0417211e-09
5.7680819e-09
4.8437861e-09
4.1000634e-09
3.418729e-09
2.792316e-09
2.2412962e-09
1.7837837e-09
1.4233212e-09
1.1485659e-09
9.4617863e-10
8.0549711e-10
7.1310409e-10
6.5924181e-10
6.3472692e-10
6.31677e-10
6.4351418e-10
6.6480064e-10
6.9120197e-10
7.1928649e-10
7.4636662e-10
7.7037991e-10
7.8977367e-10
8.0343574e-10
8.1065395e-10
8.1101658e-10
8.0434926e-10
7.9066725e-10
7.7013853e-10
7.4305635e-10
7.0982e-10
6.7092188e-10
6.2693956e-10
5.7852029e-10
5.2637477e-10
4.7126676e-10
4.1399992e-10
3.5540057e-10
2.9629623e-10
2.374905e-10
1.7973422e-10
1.2369461e-10
6.9921914e-11
1.8816932e-11
-2.9399792e-11
-7.4713803e-11
-1.1733138e-10
-1.5767549e-10
-1.9634877e-10
-2.3404498e-10
-2.7138644e-10
-3.0866764e-10
-3.4551121e-10
-3.8051174e-10
-4.1152978e-10
-4.3615608e-10
-4.0918583e-10
7.9192094e-09
5.1292331e-09
8.646502e-10
-1.0830998e-09
-1.8107408e-09
-1.6237393e-09
-1.0616449e-09
-4.5868228e-10
4.1860194e-11
3.9921258e-10
6.1907608e-10
7.2593674e-10
7.4706687e-10
7.0835598e-10
6.3161018e-10
5.3388302e-10
4.2775215e-10
3.2196821e-10
2.2273556e-10
1.3183933e-10
5.0879332e-11
-1.9801408e-11
-8.0516331e-11
-1.3201174e-10
-1.7546892e-10
-2.12412e-10
-2.3496404e-10
-2.5323104e-10
-2.6545398e-10
-2.7184519e-10
-2.7256841e-10
-2.6774241e-10
-2.574456e-10
-2.4173263e-10
-2.1981138e-10
-1.9337254e-10
-1.6149633e-10
-1.2421761e-10
-8.1618312e-11
-3.3819237e-11
1.9010859e-11
7.664573e-11
1.387943e-10
2.0509568e-10
2.7511548e-10
3.4834181e-10
4.2417588e-10
5.019096e-10
5.8068079e-10
6.5938589e-10
7.3653671e-10
8.1005688e-10
8.7702651e-10
9.3342344e-10
9.7394509e-10
9.9212398e-10
9.8152236e-10
9.3778202e-10
8.62028e-10
6.5864892e-10
-3.4428542e-09
6.262442e-10
3.6968726e-09
4.1807394e-09
3.7493016e-09
2.8919011e-09
2.1106464e-09
1.5301691e-09
1.1275862e-09
8.524709e-10
6.6420267e-10
5.3649946e-10
4.5270503e-10
4.0213178e-10
3.767124e-10
3.6991904e-10
3.7651681e-10
3.9233307e-10
4.1440662e-10
4.4068889e-10
4.6960479e-10
5.0001425e-10
5.3148601e-10
5.6404393e-10
5.975647e-10
6.3112592e-10
6.6409202e-10
6.9588024e-10
7.2590054e-10
7.535254e-10
7.7806824e-10
7.9878379e-10
8.1487918e-10
8.2553475e-10
8.2993024e-10
8.272757e-10
8.1683815e-10
7.9798225e-10
7.7021007e-10
7.3320066e-10
6.8684913e-10
6.3130385e-10
5.6700055e-10
4.946919e-10
4.1547181e-10
3.3079186e-10
2.4246782e-10
1.5266739e-10
6.3886465e-11
-2.1119436e-11
-9.9444947e-11
-1.6820946e-10
-2.2475399e-10
-2.6692423e-10
-2.9317526e-10
-3.022716e-10
-2.9223042e-10
-2.5776405e-10
-1.9594739e-10
-7.5979294e-11
-2.9223479e-11
2.1062083e-09
4.131453e-09
4.2018228e-09
3.5387592e-09
2.6441382e-09
1.9097217e-09
1.4326118e-09
1.1583552e-09
1.00434e-09
9.0443424e-10
8.1721472e-10
7.2206499e-10
6.1235569e-10
4.8902035e-10
3.5558258e-10
2.1785648e-10
8.0022177e-11
-5.9017651e-11
-1.975261e-10
-2.9470418e-10
-3.9148171e-10
-4.8068001e-10
-5.6122112e-10
-6.3239464e-10
-6.9377983e-10
-7.4516397e-10
-7.8648514e-10
-8.1779509e-10
-8.3923795e-10
-8.5103499e-10
-8.5347537e-10
-8.4691172e-10
-8.3176002e-10
-8.0850274e-10
-7.7769499e-10
-7.399716e-10
-6.9605387e-10
-6.4675417e-10
-5.9297776e-10
-5.357202e-10
-4.7605872e-10
-4.1513658e-10
-3.5413985e-10
-2.9426632e-10
-2.366871e-10
-1.8250245e-10
-1.3269213e-10
-8.8070696e-11
-4.9229982e-11
-1.6489564e-11
1.0168758e-11
3.1196131e-11
4.7615441e-11
6.122872e-11
7.4853087e-11
9.2103156e-11
1.161207e-10
1.4283753e-10
1.5770867e-10
)
;
    }
}


// ************************************************************************* //
