/*--------------------------------*- C++ -*----------------------------------*\
| =========                 |                                                 |
| \\      /  F ield         | OpenFOAM: The Open Source CFD Toolbox           |
|  \\    /   O peration     | Version:  3.0.1                                 |
|   \\  /    A nd           | Web:      www.OpenFOAM.org                      |
|    \\/     M anipulation  |                                                 |
\*---------------------------------------------------------------------------*/
FoamFile
{
    version     2.0;
    format      ascii;
    class       surfaceScalarField;
    location    "450";
    object      phi;
}
// * * * * * * * * * * * * * * * * * * * * * * * * * * * * * * * * * * * * * //

dimensions      [0 3 -1 0 0 0 0];

internalField   nonuniform List<scalar> 
1072
(
0.55372785
-3.2389628e-07
-2.2953269e-08
0.55372778
6.6804141e-08
-1.7548503e-09
0.55372786
-8.6312895e-08
-1.4871635e-09
-1.2954568e-07
-4.0092691e-09
0.48732597
-2.19724e-07
-1.5887312e-08
0.48732592
1.2045681e-07
-3.2109236e-09
0.48732594
-8.7812975e-08
-1.3811419e-09
-2.155518e-07
-4.3556657e-09
0.39653676
-1.5612767e-07
-1.1665468e-08
0.3965367
1.8507459e-07
-3.8553724e-09
0.39653672
-8.7572873e-08
-1.018711e-09
-2.9242412e-07
-3.6288818e-09
0.3380603
-9.8660112e-08
-9.2288685e-09
0.33806022
2.6230097e-07
-3.7945724e-09
0.33806025
-1.0559064e-07
-1.2953495e-09
-3.7017161e-07
-3.3917988e-09
0.30731421
2.3850613e-08
-7.5804007e-09
0.30731408
4.0597166e-07
-3.3783001e-09
0.30731417
-2.0027832e-07
-1.5869116e-09
-5.1060285e-07
-3.4261213e-09
0.29333178
2.0881126e-07
-6.0802231e-09
0.29333158
6.1589458e-07
-2.788295e-09
0.29333173
-3.6246875e-07
-1.783718e-09
-7.1457519e-07
-3.3506516e-09
0.28972299
3.9221131e-07
-4.8705539e-09
0.28972279
8.2678625e-07
-2.1482832e-09
0.28972294
-5.2571058e-07
-1.8241648e-09
-9.1737942e-07
-3.0355571e-09
0.29368461
5.2850605e-07
-3.9732932e-09
0.29368446
9.8758462e-07
-1.5729801e-09
0.29368458
-6.4390251e-07
-1.7318797e-09
-1.0687408e-06
-2.5281201e-09
0.30393518
6.0569457e-07
-3.3397158e-09
0.3039351
1.0830887e-06
-1.0959088e-09
0.30393516
-7.0495453e-07
-1.574028e-09
-1.1542008e-06
-1.9495766e-09
0.31971179
6.3093885e-07
-2.9059654e-09
0.31971176
1.1209753e-06
-7.1326262e-10
0.31971178
-7.1591704e-07
-1.4039384e-09
-1.1820909e-06
-1.3421702e-09
0.34049836
6.1728155e-07
-2.6110048e-09
0.34049837
1.116838e-06
-4.123598e-10
0.34049835
-6.8962148e-07
-1.2494049e-09
-1.1683729e-06
-7.6614275e-10
0.36597958
5.7787226e-07
-2.4051231e-09
0.36597961
1.0867499e-06
-1.7995571e-10
0.36597957
-6.3894364e-07
-1.1196849e-09
-1.1293063e-06
-2.3800567e-10
0.39600588
5.2435828e-07
-2.2463446e-09
0.39600593
1.044897e-06
-2.5620395e-12
0.39600587
-5.7524645e-07
-1.0119772e-09
-1.0790244e-06
1.5145966e-10
0.43053993
4.6631881e-07
-2.1121137e-09
0.43053998
1.0028474e-06
1.2900261e-10
0.43053991
-5.07853e-07
-9.2235666e-10
-1.0289397e-06
4.090836e-10
0.46960504
4.1079086e-07
-1.9891866e-09
0.46960508
9.6909367e-07
2.10857e-10
0.46960502
-4.4359632e-07
-8.4632963e-10
-9.8754126e-07
6.1499132e-10
0.51325017
3.6200603e-07
-1.8697684e-09
0.5132502
9.4875594e-07
2.5312708e-10
0.51325014
-3.865576e-07
-7.7930539e-10
-9.5988934e-07
7.5181749e-10
0.56153267
3.215242e-07
-1.7501664e-09
0.56153268
9.4369703e-07
2.7393882e-10
0.56153263
-3.3820225e-07
-7.175537e-10
-9.4781924e-07
8.302806e-10
0.61451341
2.8874103e-07
-1.6292248e-09
0.6145134
9.5302872e-07
2.9273096e-10
0.61451336
-2.9788202e-07
-6.585036e-10
-9.5046605e-07
8.617196e-10
0.67225812
2.6159492e-07
-1.5072001e-09
0.6722581
9.7393106e-07
2.9952729e-10
0.67225807
-2.6352915e-07
-6.0065837e-10
-9.6502136e-07
8.5691124e-10
0.73484048
2.3728196e-07
-1.3851578e-09
0.73484045
1.0024218e-06
2.9755294e-10
0.73484042
-2.3236024e-07
-5.4343164e-10
-9.8752806e-07
8.2544041e-10
0.80234465
2.1285366e-07
-1.2646065e-09
0.80234462
1.0340523e-06
2.8949661e-10
0.80234459
-2.0146331e-07
-4.8688839e-10
-1.0135704e-06
7.7545862e-10
0.87486636
1.8564436e-07
-1.1471975e-09
0.87486634
1.0644297e-06
2.7761256e-10
0.87486631
-1.6821627e-07
-4.314861e-10
-1.0387912e-06
7.1367934e-10
0.9525125
1.5353023e-07
-1.0345431e-09
0.95251248
1.0895578e-06
2.6374685e-10
0.95251244
-1.3053894e-07
-3.7786544e-10
-1.0592281e-06
6.4550319e-10
1.0353995
1.1505007e-07
-9.2810743e-10
1.0353995
1.1060227e-06
2.4936846e-10
1.0353995
-8.7009247e-08
-3.2669645e-10
-1.0714965e-06
5.751977e-10
1.1236511
6.9427072e-08
-8.2911838e-10
1.1236511
1.1110631e-06
2.3560439e-10
1.1236511
-3.6882119e-08
-2.7858841e-10
-1.072858e-06
5.0608702e-10
1.2173954
1.6527597e-08
-7.3855807e-10
1.2173955
1.1025654e-06
2.2327607e-10
1.2173954
1.9953105e-08
-2.3403762e-10
-1.0612146e-06
4.4062814e-10
1.3167619
-4.3215025e-08
-6.5715364e-10
1.316762
1.0790135e-06
2.1336095e-10
1.3167619
8.304945e-08
-1.9340613e-10
-1.0350589e-06
3.8056808e-10
1.4218785
-1.0889219e-07
-5.8536705e-10
1.4218786
1.0394229e-06
2.0498118e-10
1.4218785
1.5149483e-07
-1.5737682e-10
-9.93405e-07
3.2708659e-10
1.5328687
-1.7921454e-07
-5.2344285e-10
1.5328688
9.8326215e-07
1.9869716e-10
1.5328687
2.2400444e-07
-1.2596023e-10
-9.3571425e-07
2.8120054e-10
1.6498489
-2.5260184e-07
-4.7142666e-10
1.6498489
9.1038199e-07
1.9566067e-10
1.6498489
2.9901019e-07
-9.9143416e-11
-8.618258e-07
2.432878e-10
1.7729256
-3.2726504e-07
-4.2918683e-10
1.7729257
8.2095939e-07
1.9527107e-10
1.7729256
3.74742e-07
-7.6872528e-11
-7.7189758e-07
2.134657e-10
1.9021939
-4.0127928e-07
-3.9643527e-10
1.9021941
7.1545026e-07
1.9725041e-10
1.902194
4.4930007e-07
-5.9047485e-11
-6.6636064e-07
1.9165403e-10
2.0377349
-4.7264846e-07
-3.7275259e-10
2.037735
5.9455685e-07
2.0137338e-10
2.0377349
5.2071868e-07
-4.5522349e-11
-5.4588727e-07
1.7760633e-10
2.1796138
-5.3936301e-07
-3.5761085e-10
2.1796139
4.592084e-07
2.0741098e-10
2.1796138
5.8702327e-07
-3.6107277e-11
-4.1137238e-07
1.7094139e-10
2.327879
-5.9945283e-07
-3.5039253e-10
2.3278791
3.1055355e-07
2.151187e-10
2.3278791
6.4628262e-07
-3.0573617e-11
-2.6392649e-07
1.7117104e-10
2.4825601
-6.5103765e-07
-3.5040796e-10
2.4825603
1.4996256e-07
2.2423766e-10
2.4825602
6.9665849e-07
-2.8660012e-11
-1.0487855e-07
1.7772003e-10
2.643667
-6.923768e-07
-3.5691052e-10
2.6436672
-2.0962994e-08
2.3449924e-10
2.6436671
7.3645476e-07
-3.0077799e-11
6.4213618e-08
1.8994648e-10
2.8111886
-7.2192023e-07
-3.691106e-10
2.8111888
-2.0037473e-07
2.4563046e-10
2.8111887
7.6416759e-07
-3.4516556e-11
2.4154722e-07
2.0716011e-10
2.9850921
-7.3836198e-07
-3.8618764e-10
2.9850922
-3.8615816e-07
2.5735749e-10
2.9850922
7.7853831e-07
-4.1648534e-11
4.2505437e-07
2.2863647e-10
3.1653219
-7.4069714e-07
-4.0730122e-10
3.1653221
-5.7591038e-07
2.6940973e-10
3.1653221
7.7860952e-07
-5.1133004e-11
6.123791e-07
2.536286e-10
3.3517995
-7.2828229e-07
-4.3160086e-10
3.3517997
-7.6691559e-07
2.8152213e-10
3.3517997
7.6378488e-07
-6.2620125e-11
8.0085205e-07
2.8137655e-10
3.5444223
-7.0089943e-07
-4.5823532e-10
3.5444225
-9.5611848e-07
2.9343752e-10
3.5444226
7.338923e-07
-7.5754269e-11
9.874632e-07
3.1111506e-10
3.743064
-6.5882205e-07
-4.8636179e-10
3.7430642
-1.1400956e-06
3.0490914e-10
3.7430642
6.8924931e-07
-9.0177093e-11
1.1688324e-06
3.4208159e-10
3.9475738
-6.0288134e-07
-5.1515405e-10
3.9475739
-1.3150249e-06
3.1570417e-10
3.947574
6.3072857e-07
-1.0552817e-10
1.3411782e-06
3.7352196e-10
4.1577766
-5.3452863e-07
-5.4381219e-10
4.1577767
-1.4766558e-06
3.2560595e-10
4.1577768
5.5981966e-07
-1.2144659e-10
1.5002872e-06
4.0469635e-10
4.3734732
-4.5588767e-07
-5.7157223e-10
4.3734734
-1.620284e-06
3.3441629e-10
4.3734734
4.7868061e-07
-1.3757184e-10
1.6414882e-06
4.3488594e-10
4.5944407
-3.6978659e-07
-5.9771875e-10
4.5944409
-1.7407427e-06
3.4195679e-10
4.5944409
3.9016912e-07
-1.5354393e-10
1.7596426e-06
4.6339767e-10
4.8204327
-2.797536e-07
-6.2159914e-10
4.8204328
-1.8324289e-06
3.4806879e-10
4.8204329
2.9783746e-07
-1.6900164e-10
1.8491694e-06
4.8957884e-10
5.0511802
-1.8995386e-07
-6.4264184e-10
5.0511802
-1.889397e-06
3.526077e-10
5.0511803
2.0586835e-07
-1.835793e-10
1.9041383e-06
5.1282727e-10
5.2863921
-1.0503723e-07
-6.6037778e-10
5.2863921
-1.9055673e-06
3.5543034e-10
5.2863922
1.189218e-07
-1.9692505e-10
1.918477e-06
5.3260692e-10
5.5257568
-2.9862194e-08
-6.7446421e-10
5.5257567
-1.8751126e-06
3.5636945e-10
5.5257568
4.185799e-08
-2.0873352e-10
1.8863564e-06
5.4846777e-10
5.7689427
3.0936394e-08
-6.8470831e-10
5.7689426
-1.7930916e-06
3.5519394e-10
5.7689427
-2.0695849e-08
-2.186804e-10
1.8028237e-06
5.6007731e-10
6.0156001
7.3548906e-08
-6.9108314e-10
6.0156
-1.6563929e-06
3.5153736e-10
6.0156
-6.4947037e-08
-2.264706e-10
1.6647455e-06
5.6726379e-10
6.2653623
9.5733237e-08
-6.9371649e-10
6.2653621
-1.4650119e-06
3.4478152e-10
6.2653621
-8.8679221e-08
-2.3195847e-10
1.4720874e-06
5.7005344e-10
6.5178474
9.7598759e-08
-6.9285756e-10
6.5178471
-1.2236344e-06
3.3389035e-10
6.5178471
-9.2032353e-08
-2.3505474e-10
1.2295003e-06
5.6871762e-10
6.77266
8.2242653e-08
-6.8878049e-10
6.7726597
-9.4343089e-07
3.1716892e-10
6.7726597
-7.8131259e-08
-2.3575022e-10
9.4812508e-07
5.638521e-10
7.0293931
5.5952655e-08
-6.8166329e-10
7.0293928
-6.4390725e-07
2.9202805e-10
7.0293928
-5.3273313e-08
-2.3375257e-10
6.4745872e-07
5.5652966e-10
7.2876301
2.7618251e-08
-6.716929e-10
7.2876298
-3.5457191e-07
2.5504923e-10
7.2876298
-2.6311792e-08
-2.274326e-10
3.5704377e-07
5.4859159e-10
7.5469468
6.8640358e-09
-6.5883852e-10
7.5469465
-1.1711558e-07
2.0158615e-10
7.5469465
-6.7253318e-09
-2.1385001e-10
1.186515e-07
5.4047972e-10
7.8069134
-5.7499971e-10
7.8069133
1.0829028e-10
7.8069133
-1.6478126e-10
4.7608575e-10
0.55372787
5.9112696e-08
0.55372777
7.8433561e-08
0.55372784
-7.2634871e-08
-9.52148e-08
0.48732594
5.2208844e-08
0.48732588
1.4418775e-07
0.48732588
-6.9944298e-08
-1.6746603e-07
0.39653675
5.7033591e-08
0.39653668
2.2683701e-07
0.39653669
-7.8256403e-08
-2.5138781e-07
0.33806028
6.9841048e-08
0.3380602
3.1018954e-07
0.33806022
-9.8538538e-08
-3.341152e-07
0.3073142
1.5833557e-07
0.30731406
4.5588495e-07
0.30731415
-1.951707e-07
-4.8090321e-07
0.29333176
3.1536704e-07
0.29333156
6.6393248e-07
0.29333171
-3.5741225e-07
-6.9032282e-07
0.28972296
4.7573898e-07
0.28972276
8.7006906e-07
0.28972291
-5.1939039e-07
-8.9694858e-07
0.29368458
5.9388792e-07
0.29368443
1.0251093e-06
0.29368454
-6.3618123e-07
-1.0510611e-06
0.30393515
6.5735004e-07
0.30393507
1.1151542e-06
0.30393513
-6.9629101e-07
-1.1389724e-06
0.31971176
6.7244956e-07
0.31971173
1.1483706e-06
0.31971175
-7.0678412e-07
-1.1692048e-06
0.34049834
6.5133997e-07
0.34049835
1.1403762e-06
0.34049832
-6.8029201e-07
-1.1576341e-06
0.36597956
6.0652048e-07
0.36597959
1.1071206e-06
0.36597955
-6.2949772e-07
-1.1203347e-06
0.39600586
5.4896739e-07
0.39600591
1.0626673e-06
0.39600585
-5.6574024e-07
-1.0715077e-06
0.43053991
4.8786391e-07
0.43053996
1.0184907e-06
0.4305399
-4.9834641e-07
-1.0227228e-06
0.46960503
4.2996475e-07
0.46960506
9.8297699e-07
0.469605
-4.3415064e-07
-9.8239604e-07
0.51325016
3.7929064e-07
0.51325018
9.6115722e-07
0.51325013
-3.7723659e-07
-9.5561745e-07
0.56153266
3.3724641e-07
0.56153266
9.5483573e-07
0.56153262
-3.2906707e-07
-9.4425076e-07
0.6145134
3.0311812e-07
0.61451339
9.6311507e-07
0.61451335
-2.8898667e-07
-9.4745569e-07
0.6722581
2.7476913e-07
0.67225808
9.8313002e-07
0.67225805
-2.549199e-07
-9.6244474e-07
0.73484046
2.4934712e-07
0.73484044
1.0108613e-06
0.73484041
-2.2407599e-07
-9.8527897e-07
0.80234464
2.238747e-07
0.80234461
1.0418306e-06
0.80234458
-1.935362e-07
-1.0115587e-06
0.87486635
1.9567087e-07
0.87486632
1.0716224e-06
0.87486629
-1.6067224e-07
-1.0369412e-06
0.95251249
1.6260525e-07
0.95251246
1.0962231e-06
0.95251243
-1.2339825e-07
-1.0574769e-06
1.0353995
1.2321545e-07
1.0353995
1.1122054e-06
1.0353995
-8.0286855e-08
-1.0697924e-06
1.1236511
7.6726465e-08
1.1236511
1.1167981e-06
1.1236511
-3.0588048e-08
-1.071159e-06
1.2173954
2.3007675e-08
1.2173954
1.1078801e-06
1.2173954
2.5813488e-08
-1.0594867e-06
1.3167619
-3.7504551e-08
1.3167619
1.0839312e-06
1.3167619
8.8475195e-08
-1.0332753e-06
1.4218785
-1.0389905e-07
1.4218786
1.04396e-06
1.4218785
1.5648683e-07
-9.9154471e-07
1.5328687
-1.7488457e-07
1.5328688
9.8743073e-07
1.5328687
2.2856579e-07
-9.3376061e-07
1.6498488
-2.4887967e-07
1.6498489
9.1419402e-07
1.6498488
3.0314611e-07
-8.5976572e-07
1.7729256
-3.240947e-07
1.7729257
8.2442566e-07
1.7729256
3.784596e-07
-7.6972118e-07
1.9021939
-3.9860478e-07
1.902194
7.1857987e-07
1.902194
4.5260806e-07
-6.6406089e-07
2.0377348
-4.7041428e-07
2.037735
5.9735744e-07
2.0377349
5.2362711e-07
-5.4345967e-07
2.1796138
-5.3751447e-07
2.1796139
4.6168637e-07
2.1796138
5.8954329e-07
-4.0881468e-07
2.327879
-5.9793641e-07
2.3278791
3.1271433e-07
2.3278791
6.484263e-07
-2.6123863e-07
2.4825601
-6.4980124e-07
2.4825603
1.5181076e-07
2.4825602
6.984387e-07
-1.0206257e-07
2.643667
-6.9136992e-07
2.6436672
-1.9423298e-08
2.6436671
7.37885e-07
6.7153614e-08
2.8111886
-7.2109427e-07
2.8111888
-1.9913981e-07
2.8111887
7.6526201e-07
2.4460501e-07
2.985092
-7.3767043e-07
2.9850922
-3.8522432e-07
2.9850922
7.7931164e-07
4.2822159e-07
3.1653219
-7.4009586e-07
3.1653221
-5.7527366e-07
3.1653221
7.7907712e-07
6.156451e-07
3.3517995
-7.2772982e-07
3.3517997
-7.6657139e-07
3.3517997
7.6396283e-07
8.0420385e-07
3.5444223
-7.0035739e-07
3.5444225
-9.5606118e-07
3.5444226
7.3379754e-07
9.9088529e-07
3.743064
-6.5825556e-07
3.7430642
-1.1403181e-06
3.7430643
6.8889986e-07
1.1723066e-06
3.9475738
-6.0225961e-07
3.947574
-1.315518e-06
3.947574
6.3014385e-07
1.3446835e-06
4.1577766
-5.338256e-07
4.1577767
-1.4774078e-06
4.1577768
5.5902086e-07
1.5037996e-06
4.3734732
-4.5508285e-07
4.3734734
-1.62128e-06
4.3734735
4.7769121e-07
1.6449803e-06
4.5944408
-3.6886601e-07
4.5944409
-1.7419642e-06
4.594441
3.8901544e-07
1.7630833e-06
4.8204328
-2.7871094e-07
4.8204328
-1.8338528e-06
4.8204329
2.965493e-07
1.8525236e-06
5.0511802
-1.8879168e-07
5.0511802
-1.8909951e-06
5.0511803
2.0447961e-07
1.9073664e-06
5.2863921
-1.037682e-07
5.2863921
-1.9073058e-06
5.2863922
1.1747089e-07
1.9215345e-06
5.5257568
-2.8510107e-08
5.5257567
-1.8769516e-06
5.5257568
4.0387532e-08
1.8891935e-06
5.7689427
3.2336037e-08
5.7689426
-1.7949853e-06
5.7689427
-2.213932e-08
1.8053859e-06
6.0156001
7.495015e-08
6.0156
-1.6582926e-06
6.0156
-6.6311229e-08
1.666972e-06
6.2653623
9.7082163e-08
6.2653621
-1.4668665e-06
6.2653621
-8.9914673e-08
1.4739177e-06
6.5178474
9.8839264e-08
6.5178472
-1.2253986e-06
6.5178472
-9.3092007e-08
1.2308779e-06
6.77266
8.3324429e-08
6.7726597
-9.4507847e-07
6.7726597
-7.8971255e-08
9.4900933e-07
7.0293931
5.6840146e-08
7.0293928
-6.454537e-07
7.0293928
-5.3846098e-08
6.4784698e-07
7.2876301
2.8293068e-08
7.2876298
-3.561133e-07
7.2876298
-2.6539222e-08
3.5701852e-07
7.5469468
7.308731e-09
7.5469465
-1.1876811e-07
7.5469465
-6.4914136e-09
1.1840411e-07
7.8069134
7.8069133
7.8069133
)
;

boundaryField
{
    movingWall
    {
        type            calculated;
        value           uniform 0;
    }
    CPLReceiveMD
    {
        type            calculated;
        value           uniform 0;
    }
    streamwiseIn
    {
        type            cyclic;
        value           nonuniform List<scalar> 
120
(
-0.553728
-0.48732604
-0.39653681
-0.33806035
-0.30731432
-0.29333194
-0.28972315
-0.29368473
-0.30393525
-0.31971181
-0.34049834
-0.36597954
-0.39600583
-0.43053987
-0.46960499
-0.51325012
-0.56153263
-0.61451338
-0.67225809
-0.73484045
-0.80234463
-0.87486634
-0.95251247
-1.0353995
-1.1236511
-1.2173954
-1.3167619
-1.4218785
-1.5328687
-1.6498488
-1.7729256
-1.9021939
-2.0377348
-2.1796137
-2.3278789
-2.4825601
-2.643667
-2.8111886
-2.985092
-3.1653219
-3.3517995
-3.5444224
-3.7430641
-3.9475738
-4.1577766
-4.3734733
-4.5944408
-4.8204328
-5.0511803
-5.2863922
-5.5257568
-5.7689428
-6.0156001
-6.2653623
-6.5178474
-6.77266
-7.0293931
-7.2876301
-7.5469468
-7.8069134
-0.55372794
-0.48732594
-0.39653677
-0.3380603
-0.30731429
-0.29333192
-0.28972312
-0.29368469
-0.30393521
-0.31971177
-0.34049831
-0.36597951
-0.3960058
-0.43053985
-0.46960496
-0.5132501
-0.56153261
-0.61451336
-0.67225807
-0.73484043
-0.80234461
-0.87486632
-0.95251245
-1.0353995
-1.1236511
-1.2173954
-1.3167618
-1.4218784
-1.5328686
-1.6498488
-1.7729255
-1.9021939
-2.0377348
-2.1796137
-2.3278789
-2.48256
-2.6436669
-2.8111886
-2.985092
-3.1653219
-3.3517995
-3.5444224
-3.7430641
-3.9475738
-4.1577766
-4.3734733
-4.5944408
-4.8204328
-5.0511803
-5.2863922
-5.5257569
-5.7689428
-6.0156002
-6.2653623
-6.5178474
-6.77266
-7.0293931
-7.2876301
-7.5469468
-7.8069134
)
;
    }
    streamwiseOut
    {
        type            cyclic;
        value           nonuniform List<scalar> 
120
(
0.553728
0.48732604
0.39653681
0.33806035
0.30731432
0.29333194
0.28972315
0.29368473
0.30393525
0.31971181
0.34049834
0.36597954
0.39600583
0.43053987
0.46960499
0.51325012
0.56153263
0.61451338
0.67225809
0.73484045
0.80234463
0.87486634
0.95251247
1.0353995
1.1236511
1.2173954
1.3167619
1.4218785
1.5328687
1.6498488
1.7729256
1.9021939
2.0377348
2.1796137
2.3278789
2.4825601
2.643667
2.8111886
2.985092
3.1653219
3.3517995
3.5444224
3.7430641
3.9475738
4.1577766
4.3734733
4.5944408
4.8204328
5.0511803
5.2863922
5.5257568
5.7689428
6.0156001
6.2653623
6.5178474
6.77266
7.0293931
7.2876301
7.5469468
7.8069134
0.55372794
0.48732594
0.39653677
0.3380603
0.30731429
0.29333192
0.28972312
0.29368469
0.30393521
0.31971177
0.34049831
0.36597951
0.3960058
0.43053985
0.46960496
0.5132501
0.56153261
0.61451336
0.67225807
0.73484043
0.80234461
0.87486632
0.95251245
1.0353995
1.1236511
1.2173954
1.3167618
1.4218784
1.5328686
1.6498488
1.7729255
1.9021939
2.0377348
2.1796137
2.3278789
2.48256
2.6436669
2.8111886
2.985092
3.1653219
3.3517995
3.5444224
3.7430641
3.9475738
4.1577766
4.3734733
4.5944408
4.8204328
5.0511803
5.2863922
5.5257569
5.7689428
6.0156002
6.2653623
6.5178474
6.77266
7.0293931
7.2876301
7.5469468
7.8069134
)
;
    }
    front
    {
        type            cyclic;
        value           nonuniform 0();
    }
    back
    {
        type            cyclic;
        value           nonuniform 0();
    }
    procBoundary0to1
    {
        type            processor;
        value           nonuniform List<scalar> 
240
(
-7.356891e-09
-1.172688e-09
-5.3671429e-11
1.2442343e-09
-6.8034394e-09
-1.0183636e-09
-9.9708466e-10
2.1947497e-10
-4.2596958e-09
-4.8657874e-10
-1.5406581e-09
-3.7157276e-10
-3.5396127e-09
-2.5598143e-10
-1.4311858e-09
-5.1894999e-10
-3.2632115e-09
-5.7257188e-10
-1.1259979e-09
-4.6010398e-10
-3.1041981e-09
-9.6092384e-10
-9.7928353e-10
-3.7770953e-10
-2.8159568e-09
-1.2778527e-09
-7.8477132e-10
-2.1404884e-10
-2.3208404e-09
-1.4724734e-09
-6.1264733e-10
-3.5902045e-10
-1.6559264e-09
-1.5294567e-09
-4.4943866e-10
-6.1887296e-10
-9.8900697e-10
-1.4801092e-09
-2.9911086e-10
-8.55885e-10
-4.0632753e-10
-1.3743706e-09
-1.734067e-10
-1.0430081e-09
-2.4332284e-11
-1.2419602e-09
-1.001676e-10
-1.1801978e-09
3.8355891e-10
-1.1057491e-09
5.9566184e-12
-1.2711208e-09
6.9901454e-10
-9.7735588e-10
1.1451255e-10
-1.3196469e-09
9.2397171e-10
-8.6230107e-10
2.0451966e-10
-1.3291031e-09
1.0711e-09
-7.6173043e-10
2.7401718e-10
-1.3058861e-09
1.1538342e-09
-6.7434687e-10
3.2277463e-10
-1.2566301e-09
1.1852299e-09
-5.9806666e-10
3.5200176e-10
-1.1876964e-09
1.1771843e-09
-5.314515e-10
3.6393498e-10
-1.1049215e-09
1.1400656e-09
-4.7314718e-10
3.614004e-10
-1.0134008e-09
1.0826234e-09
-4.2208422e-10
3.4743135e-10
-9.1745049e-10
1.0120526e-09
-3.7748722e-10
3.2498583e-10
-8.2064532e-10
9.3414808e-10
-3.388089e-10
2.9676211e-10
-7.2587863e-10
8.5348974e-10
-3.0565062e-10
2.6508979e-10
-6.3544524e-10
7.7363775e-10
-2.7769702e-10
2.3190058e-10
-5.5114856e-10
6.9729008e-10
-2.5465866e-10
1.987399e-10
-4.7425296e-10
6.2644705e-10
-2.3623067e-10
1.667202e-10
-4.0560666e-10
5.6251549e-10
-2.2208632e-10
1.372309e-10
-3.4568375e-10
5.0643844e-10
-2.1168623e-10
1.1077655e-10
-2.9499461e-10
4.5877575e-10
-2.0527741e-10
8.7718904e-11
-2.5349254e-10
4.19777e-10
-2.0256751e-10
6.8291473e-11
-2.209909e-10
3.8943777e-10
-2.0272814e-10
5.2612616e-11
-1.9718025e-10
3.6755034e-10
-2.0546149e-10
4.0703993e-11
-1.8166087e-10
3.5374432e-10
-2.1045128e-10
3.2504197e-11
-1.7395121e-10
3.4751944e-10
-2.1737479e-10
2.7882609e-11
-1.7340402e-10
3.4827333e-10
-2.2590952e-10
2.665233e-11
-1.7936263e-10
3.5532457e-10
-2.3573717e-10
2.858144e-11
-1.9115008e-10
3.6793219e-10
-2.4654659e-10
3.3402238e-11
-2.0804094e-10
3.8531186e-10
-2.5803532e-10
4.0819384e-11
-2.2928094e-10
4.0665012e-10
-2.6991121e-10
5.0516503e-11
-2.5410049e-10
4.3111659e-10
-2.8189317e-10
6.2161971e-11
-2.8172254e-10
4.5787502e-10
-2.9371221e-10
7.541395e-11
-3.1136932e-10
4.8609358e-10
-3.0511269e-10
8.9924351e-11
-3.4226896e-10
5.1495432e-10
-3.1585516e-10
1.0534049e-10
-3.7366062e-10
5.4366331e-10
-3.2571813e-10
1.2130721e-10
-4.047994e-10
5.7146127e-10
-3.344998e-10
1.3746835e-10
-4.3496311e-10
5.9763599e-10
-3.420192e-10
1.5346698e-10
-4.6345577e-10
6.2153729e-10
-3.4811549e-10
1.6894443e-10
-4.8962306e-10
6.4259555e-10
-3.5264269e-10
1.8353665e-10
-5.128611e-10
6.6034302e-10
-3.5545653e-10
1.9689316e-10
-5.3263306e-10
6.7443809e-10
-3.5638919e-10
2.0870948e-10
-5.484881e-10
6.8468862e-10
-3.5520898e-10
2.1866205e-10
-5.6009329e-10
6.9106879e-10
-3.5154904e-10
2.2645699e-10
-5.6727653e-10
6.9370644e-10
-3.4479069e-10
2.3194868e-10
-5.7006396e-10
6.9285066e-10
-3.3389779e-10
2.3504788e-10
-5.6872645e-10
6.8877602e-10
-3.171751e-10
2.3574594e-10
-5.6385954e-10
6.8166073e-10
-2.9203321e-10
2.3375048e-10
-5.5653607e-10
6.7169181e-10
-2.5505331e-10
2.274321e-10
-5.4859688e-10
6.5883801e-10
-2.0158899e-10
2.1385016e-10
-5.4048332e-10
5.7499819e-10
-1.0829161e-10
1.6478071e-10
-4.7608617e-10
)
;
    }
    procBoundary0to1throughfront
    {
        type            processorCyclic;
        value           nonuniform List<scalar> 
240
(
-2.324132e-08
-1.6200847e-08
-1.1866285e-08
-9.2803908e-09
-7.4963799e-09
-5.8999142e-09
-4.6373385e-09
-3.7188064e-09
-3.0854477e-09
-2.6641564e-09
-2.3874554e-09
-2.2032057e-09
-2.0725738e-09
-1.9650986e-09
-1.8665002e-09
-1.7688135e-09
-1.6682072e-09
-1.5635543e-09
-1.4552407e-09
-1.3445502e-09
-1.2332449e-09
-1.1232618e-09
-1.0164917e-09
-9.1465428e-10
-8.1920949e-10
-7.3135226e-10
-6.5198513e-10
-5.8171526e-10
-5.2090709e-10
-4.6970207e-10
-4.2804393e-10
-3.9570337e-10
-3.7230627e-10
-3.573589e-10
-3.5026942e-10
-3.5036729e-10
-3.5692005e-10
-3.6914839e-10
-3.8623908e-10
-4.0735697e-10
-4.316551e-10
-4.5828485e-10
-4.8640506e-10
-5.1519066e-10
-5.4384231e-10
-5.7159644e-10
-5.9773777e-10
-6.2161365e-10
-6.4265242e-10
-6.6038543e-10
-6.7446964e-10
-6.8471197e-10
-6.9108521e-10
-6.937173e-10
-6.9285781e-10
-6.8878014e-10
-6.8166252e-10
-6.7169193e-10
-6.5883826e-10
-5.7500133e-10
-1.7143566e-09
-3.2143149e-09
-3.9155006e-09
-3.9130716e-09
-3.5184536e-09
-2.9518079e-09
-2.3198268e-09
-1.7427589e-09
-1.256969e-09
-8.6065729e-10
-5.4336305e-10
-2.9325377e-10
-9.8458644e-11
4.7780299e-11
1.4325038e-10
1.9959328e-10
2.2955228e-10
2.5807726e-10
2.7284638e-10
2.7728264e-10
2.7429363e-10
2.6635404e-10
2.555154e-10
2.4342905e-10
2.3137736e-10
2.2031063e-10
2.1155972e-10
2.0359221e-10
1.9774948e-10
1.9503441e-10
1.9488778e-10
1.9704242e-10
2.0128526e-10
2.0740013e-10
2.1515411e-10
2.242976e-10
2.3456922e-10
2.457013e-10
2.5742364e-10
2.6946824e-10
2.8157174e-10
2.9347812e-10
3.0494126e-10
3.1572876e-10
3.2562409e-10
3.3442896e-10
3.4196515e-10
3.4807378e-10
3.5261004e-10
3.5543085e-10
3.5636862e-10
3.5519233e-10
3.5153521e-10
3.4477914e-10
3.3388791e-10
3.1716653e-10
2.9202557e-10
2.5504662e-10
2.0158399e-10
1.0828973e-10
-1.1098395e-09
-9.9898106e-10
-6.4177475e-10
-9.2948202e-10
-1.2257312e-09
-1.4353351e-09
-1.5068144e-09
-1.45454e-09
-1.3359136e-09
-1.2005376e-09
-1.0752369e-09
-9.7065963e-10
-8.8766939e-10
-8.2047531e-10
-7.634505e-10
-7.1243384e-10
-6.6407151e-10
-6.1613903e-10
-5.6744672e-10
-5.1767915e-10
-4.6714832e-10
-4.1653766e-10
-3.6668884e-10
-3.1845609e-10
-2.7260301e-10
-2.2976232e-10
-1.904095e-10
-1.5532145e-10
-1.2458779e-10
-9.8258575e-11
-7.6329213e-11
-5.8738115e-11
-4.5368897e-11
-3.6053994e-11
-3.0581469e-11
-2.8702179e-11
-3.0136383e-11
-3.4580053e-11
-4.1709906e-11
-5.1188257e-11
-6.2667466e-11
-7.5793202e-11
-9.0207877e-11
-1.0555144e-10
-1.2146342e-10
-1.3758339e-10
-1.535513e-10
-1.6900589e-10
-1.8358136e-10
-1.9692552e-10
-2.0873279e-10
-2.1867909e-10
-2.2646896e-10
-2.3195663e-10
-2.3505276e-10
-2.3574855e-10
-2.3375115e-10
-2.2743162e-10
-2.1384959e-10
-1.6478157e-10
-3.8951725e-09
-4.2102656e-09
-3.5212355e-09
-3.362358e-09
-3.4650965e-09
-3.4513025e-09
-3.1844733e-09
-2.6870057e-09
-2.1278394e-09
-1.5226273e-09
-9.392951e-10
-3.9976162e-10
2.8569751e-11
2.890764e-10
5.1363238e-10
6.6802983e-10
7.6231968e-10
8.0751891e-10
8.1433445e-10
7.9245115e-10
7.5021951e-10
6.9459688e-10
6.3123701e-10
5.6464654e-10
4.9836282e-10
4.3502889e-10
3.7654737e-10
3.2422645e-10
2.791856e-10
2.4188329e-10
2.1249825e-10
1.9099682e-10
1.7716709e-10
1.7065325e-10
1.7098634e-10
1.7760541e-10
1.8987875e-10
2.0712321e-10
2.2861939e-10
2.5362381e-10
2.8137903e-10
3.1112151e-10
3.4208989e-10
3.7353077e-10
4.0470488e-10
4.3489383e-10
4.6340471e-10
4.8958497e-10
5.1283254e-10
5.3261139e-10
5.4847144e-10
5.6008033e-10
5.6726617e-10
5.7005501e-10
5.6871845e-10
5.6385196e-10
5.5652887e-10
5.4859066e-10
5.4047935e-10
4.7608693e-10
)
;
    }
}


// ************************************************************************* //
