/*--------------------------------*- C++ -*----------------------------------*\
| =========                 |                                                 |
| \\      /  F ield         | OpenFOAM: The Open Source CFD Toolbox           |
|  \\    /   O peration     | Version:  3.0.1                                 |
|   \\  /    A nd           | Web:      www.OpenFOAM.org                      |
|    \\/     M anipulation  |                                                 |
\*---------------------------------------------------------------------------*/
FoamFile
{
    version     2.0;
    format      ascii;
    class       surfaceScalarField;
    location    "400";
    object      phi;
}
// * * * * * * * * * * * * * * * * * * * * * * * * * * * * * * * * * * * * * //

dimensions      [0 3 -1 0 0 0 0];

internalField   nonuniform List<scalar> 
1072
(
0.029046414
4.3228388e-07
-1.608241e-09
0.029045838
5.9026492e-07
1.5092894e-09
0.029046362
-5.2413753e-07
1.4409644e-10
-6.0341771e-07
-3.0419881e-09
0.10545772
3.3273664e-07
5.6501593e-10
0.10545765
6.8010446e-07
5.7051679e-09
0.10545754
-4.0194792e-07
-1.0283192e-09
-6.85761e-07
-7.6311442e-09
0.088963308
7.5243169e-07
-4.4606557e-10
0.088962829
1.1552509e-06
4.6562082e-09
0.088963233
-7.9689621e-07
-1.2381581e-11
-1.1615442e-06
-8.2056734e-09
0.075440175
4.6973772e-07
-1.4589457e-09
0.075440395
9.2854001e-07
1.2091583e-09
0.075440093
-5.0310447e-07
2.7419025e-09
-9.3497252e-07
-4.9591237e-09
0.072896051
3.1550931e-07
-7.3451826e-10
0.072896237
7.3781851e-07
-2.050622e-09
0.072896061
-3.3701749e-07
2.6230491e-09
-7.5060135e-07
-1.8275674e-09
0.080385531
3.0605261e-07
4.0305038e-10
0.08038557
6.946344e-07
-3.4042009e-09
0.080385549
-3.2214077e-07
3.4750049e-09
-7.1451323e-07
-4.0705607e-10
0.095374417
4.0555269e-07
1.235775e-09
0.09537433
7.7691537e-07
-3.9240279e-09
0.095374429
-4.2160976e-07
3.5007761e-09
-8.0511538e-07
3.7002131e-10
0.11554059
5.7657848e-07
1.8679274e-09
0.11554042
9.4742375e-07
-3.6126702e-09
0.1155406
-5.9756446e-07
3.0055228e-09
-9.8536466e-07
3.3441397e-10
0.13932854
7.7902009e-07
2.2553384e-09
0.13932831
1.1652138e-06
-2.8676032e-09
0.13932853
-8.0921791e-07
2.3517933e-09
-1.2141348e-06
-5.7266478e-11
0.16589038
9.8236172e-07
2.3276284e-09
0.16589014
1.3974867e-06
-2.000685e-09
0.16589036
-1.0247075e-06
1.7131353e-09
-1.4581525e-06
-4.8877625e-10
0.19486157
1.1687612e-06
2.0827998e-09
0.19486133
1.623872e-06
-1.2048672e-09
0.19486153
-1.2246054e-06
1.2376753e-09
-1.6963247e-06
-7.929729e-10
0.2261621
1.3285979e-06
1.9097664e-09
0.22616188
1.8333799e-06
-5.6649715e-10
0.22616206
-1.3982579e-06
8.9357943e-10
-1.9168684e-06
-9.2112135e-10
0.25986819
1.4569183e-06
1.5782829e-09
0.259868
2.0197435e-06
-9.9312676e-11
0.25986814
-1.5392061e-06
5.3683678e-10
-2.1129569e-06
-8.0351496e-10
0.29614396
1.5503132e-06
1.1768982e-09
0.29614379
2.178434e-06
2.1819191e-10
0.2961439
-1.6431259e-06
2.5028247e-10
-2.2793772e-06
-6.5443754e-10
0.33520901
1.6064656e-06
7.7025062e-10
0.33520888
2.3059075e-06
4.1954036e-10
0.33520894
-1.7071972e-06
2.729337e-11
-2.4122772e-06
-4.5024624e-10
0.37732156
1.6247147e-06
3.9985162e-10
0.37732146
2.4001365e-06
5.3590525e-10
0.37732149
-1.7305846e-06
-1.4279145e-10
-2.5095577e-06
-2.2109869e-10
0.42276574
1.6065807e-06
8.7920243e-11
0.42276568
2.4612969e-06
5.8756389e-10
0.42276566
-1.7148725e-06
-2.6833501e-10
-2.5714803e-06
2.9566974e-12
0.47183945
1.5557274e-06
-1.5718448e-10
0.47183942
2.4919016e-06
6.0399357e-10
0.47183937
-1.6639485e-06
-3.5612991e-10
-2.6007667e-06
2.0227046e-10
0.52484299
1.4773653e-06
-3.3621938e-10
0.52484299
2.4962744e-06
6.0975602e-10
0.52484291
-1.5833417e-06
-4.1241268e-10
-2.6020365e-06
3.5407433e-10
0.58206993
1.377368e-06
-4.5620667e-10
0.58206995
2.4797558e-06
5.9790608e-10
0.58206985
-1.4792901e-06
-4.4326631e-10
-2.5809565e-06
4.8223526e-10
0.64380095
1.2614077e-06
-5.2499889e-10
0.64380099
2.4476654e-06
5.6841584e-10
0.64380087
-1.3578447e-06
-4.546944e-10
-2.5431516e-06
5.7284966e-10
0.7103009
1.1343253e-06
-5.5165371e-10
0.71030095
2.4044786e-06
5.348457e-10
0.71030082
-1.2242193e-06
-4.5228319e-10
-2.4934038e-06
6.2725615e-10
0.78181829
9.9981345e-07
-5.4530597e-10
0.78181835
2.3533501e-06
5.0112731e-10
0.78181821
-1.0824589e-06
-4.4040964e-10
-2.4351599e-06
6.5058282e-10
0.85858638
8.6038651e-07
-5.1436075e-10
0.85858645
2.2959463e-06
4.6900077e-10
0.8585863
-9.3539854e-07
-4.2252848e-10
-2.3703544e-06
6.4810349e-10
0.94082496
7.1755549e-07
-4.6600558e-10
0.94082502
2.2325347e-06
4.3893943e-10
0.94082488
-7.8483102e-07
-4.010985e-10
-2.299493e-06
6.2474905e-10
1.0287421
5.7211478e-07
-4.0595434e-10
1.0287422
2.1622392e-06
4.1053367e-10
1.028742
-6.3178909e-07
-3.7766315e-10
-2.2219041e-06
5.8477723e-10
1.1225356
4.2445839e-07
-3.384017e-10
1.1225357
2.0833717e-06
3.8281368e-10
1.1225355
-4.7685971e-07
-3.5301805e-10
-2.1360683e-06
5.3160772e-10
1.2223936
2.74869e-07
-2.6611863e-10
1.2223936
1.9937722e-06
3.5453797e-10
1.2223935
-3.2047325e-07
-3.2740079e-10
-2.0399576e-06
4.6779951e-10
1.3284945
1.2374788e-07
-1.9065897e-10
1.3284946
1.8911116e-06
3.2442903e-10
1.3284944
-1.6313549e-07
-3.0067317e-10
-1.9313393e-06
3.9513351e-10
1.4410065
-2.8225688e-08
-1.1263391e-10
1.4410066
1.7731387e-06
2.9134382e-10
1.4410065
-5.5904401e-09
-2.7247737e-10
-1.8080242e-06
3.1476362e-10
1.5600865
-1.8000359e-07
-3.2009984e-11
1.5600866
1.6378649e-06
2.5438008e-10
1.5600865
1.5108443e-07
-2.4235098e-10
-1.6680546e-06
2.2739982e-10
1.6858782
-3.3013684e-07
5.1625664e-11
1.6858783
1.4836939e-06
2.1292592e-10
1.6858782
3.0544121e-07
-2.0983334e-10
-1.5098371e-06
1.3349383e-10
1.8185105
-4.7679015e-07
1.3883104e-10
1.8185107
1.3095068e-06
1.6666692e-10
1.8185105
4.5567082e-07
-1.7452305e-10
-1.3322319e-06
3.340525e-11
1.9580959
-6.1779126e-07
2.301249e-10
1.9580961
1.1147151e-06
1.1556466e-10
1.9580959
5.996471e-07
-1.3612195e-10
-1.1346101e-06
-7.2465789e-11
2.1047279
-7.5070499e-07
3.2585753e-10
2.1047281
8.9929284e-07
5.9819223e-11
2.104728
7.3499572e-07
-9.4456594e-11
-9.1689003e-07
-1.8358377e-10
2.2584796
-8.7292439e-07
4.2613297e-10
2.2584798
6.6379646e-07
-1.753168e-13
2.2584797
8.5918052e-07
-4.9487434e-11
-6.7956143e-07
-2.9922065e-10
2.4194016
-9.8177388e-07
5.3077302e-10
2.4194019
4.0937914e-07
-6.3875827e-11
2.4194018
9.6960211e-07
-1.3086127e-12
-4.2370422e-07
-4.184324e-10
2.5875204
-1.0746208e-06
6.3931358e-10
2.5875207
1.3780363e-07
-1.3063223e-10
2.5875206
1.0637054e-06
4.9861369e-11
-1.5100516e-07
-5.4006178e-10
2.7628366
-1.1489935e-06
7.5102911e-10
2.7628369
-1.4854377e-07
-1.9972541e-10
2.7628368
1.1390938e-06
1.0369261e-10
1.362244e-07
-6.6275945e-10
2.9453237
-1.202704e-06
8.6495448e-10
2.945324
-4.466368e-07
-2.7040299e-10
2.945324
1.1936489e-06
1.5976169e-10
4.3502883e-07
-7.8501974e-10
3.134927
-1.2339739e-06
9.7993196e-10
3.1349273
-7.5278979e-07
-3.4191257e-10
3.1349273
1.2256535e-06
2.1756756e-10
7.4178591e-07
-9.0522531e-10
3.3315621
-1.2415623e-06
1.0946512e-09
3.3315624
-1.062635e-06
-4.1353763e-10
3.3315624
1.2339169e-06
2.7654792e-10
1.0521816e-06
-1.0216903e-09
3.5351147
-1.224891e-06
1.2076876e-09
3.535115
-1.3710963e-06
-4.8463682e-10
3.5351151
1.2178993e-06
3.3609228e-10
1.3611823e-06
-1.1327066e-09
3.7454398
-1.1841648e-06
1.3175371e-09
3.7454401
-1.67236e-06
-5.5468869e-10
3.7454402
1.1778304e-06
3.9555166e-10
1.6630038e-06
-1.2365856e-09
3.9623612
-1.120478e-06
1.4226454e-09
3.9623615
-1.959843e-06
-6.2334122e-10
3.9623616
1.1148165e-06
4.5424255e-10
1.9510798e-06
-1.3316868e-09
4.1856718
-1.0359004e-06
1.5214357e-09
4.185672
-2.2261611e-06
-6.9046277e-10
4.1856721
1.0309276e-06
5.1144426e-10
2.2180305e-06
-1.4164371e-09
4.4151333
-9.3352806e-07
1.6123361e-09
4.4151335
-2.4631041e-06
-7.5618446e-10
4.4151336
9.2925066e-07
5.6638978e-10
2.4556396e-06
-1.4893302e-09
4.6504773
-8.1748332e-07
1.6938179e-09
4.6504775
-2.6616299e-06
-8.2091813e-10
4.6504776
8.1389398e-07
6.1825078e-10
2.6548512e-06
-1.5489111e-09
4.8914053
-6.9284293e-07
1.7644538e-09
4.8914054
-2.811904e-06
-8.8532519e-10
4.8914056
6.8991989e-07
6.6612409e-10
2.8058133e-06
-1.5937538e-09
5.1375902
-5.6546751e-07
1.8230141e-09
5.1375903
-2.903428e-06
-9.5019569e-10
5.1375904
5.6317962e-07
7.0903177e-10
2.8980112e-06
-1.6224604e-09
5.3886771
-4.4170244e-07
1.8686126e-09
5.3886771
-2.925336e-06
-1.0161813e-09
5.3886773
4.4001789e-07
7.4596327e-10
2.9205679e-06
-1.6337324e-09
5.6442852
-3.2791894e-07
1.9008977e-09
5.6442851
-2.8669791e-06
-1.0832966e-09
5.6442852
3.2681391e-07
7.7600065e-10
2.8628311e-06
-1.6265833e-09
5.9040088
-2.2987192e-07
1.9202442e-09
5.9040087
-2.7189746e-06
-1.150063e-09
5.9040088
2.2933319e-07
7.985924e-10
2.7154222e-06
-1.60078e-09
6.1674201
-1.5187713e-07
1.9278097e-09
6.1674199
-2.4749562e-06
-1.2121212e-09
6.1674199
1.5189163e-07
8.1398702e-10
2.4719822e-06
-1.5575794e-09
6.4340706
-9.5868492e-08
1.9252032e-09
6.4340702
-2.1343036e-06
-1.2600528e-09
6.4340703
9.6395024e-08
8.2363928e-10
2.1318949e-06
-1.5008286e-09
6.7034936
-6.0505261e-08
1.9133474e-09
6.7034932
-1.7060959e-06
-1.2762466e-09
6.7034932
6.1432073e-08
8.3001529e-10
1.7042328e-06
-1.4383119e-09
6.975207
-4.0679965e-08
1.8901335e-09
6.9752065
-1.214237e-06
-1.2294444e-09
6.9752065
4.1788846e-08
8.331909e-10
1.2128721e-06
-1.3837239e-09
7.2487154
-2.8079446e-08
1.8477837e-09
7.2487149
-7.0325911e-07
-1.0691751e-09
7.2487149
2.9087489e-08
8.1553317e-10
7.0226382e-07
-1.3595731e-09
7.5235135
-1.4267745e-08
1.7750111e-09
7.523513
-2.4919368e-07
-7.1107074e-10
7.523513
1.5026764e-08
7.1464701e-10
2.4827351e-07
-1.4117777e-09
7.7990882
1.4938067e-09
7.7990879
-7.1271081e-11
7.799088
4.7616503e-10
-1.4170907e-09
0.029046336
4.9270841e-07
0.029045743
5.935064e-07
0.029046258
-5.0131931e-07
-5.7712411e-07
0.10545728
3.7344893e-07
0.10545722
6.5861247e-07
0.10545708
-3.8325493e-07
-6.3719149e-07
0.088963174
7.9314097e-07
0.088962694
1.1542126e-06
0.088963082
-7.9740579e-07
-1.1382587e-06
0.075439941
4.9910318e-07
0.075440174
9.359258e-07
0.075439857
-5.0421719e-07
-9.2563475e-07
0.072896032
3.3559576e-07
0.072896224
7.5027521e-07
0.072896046
-3.4412452e-07
-7.4939028e-07
0.080385544
3.1732056e-07
0.080385587
7.0774476e-07
0.080385566
-3.3056669e-07
-7.1778897e-07
0.095374429
4.0897562e-07
0.095374344
7.8711535e-07
0.095374443
-4.2946597e-07
-8.0944822e-07
0.1155406
5.741081e-07
0.11554042
9.5355967e-07
0.1155406
-6.0462307e-07
-9.894801e-07
0.13932853
7.7286837e-07
0.13932831
1.1677295e-06
0.13932852
-8.157204e-07
-1.2181034e-06
0.16589036
9.7424573e-07
0.16589012
1.3975249e-06
0.16589034
-1.030921e-06
-1.4625364e-06
0.19486154
1.1595873e-06
0.19486131
1.6226393e-06
0.19486151
-1.2304609e-06
-1.7016533e-06
0.22616207
1.3195366e-06
0.22616185
1.8318338e-06
0.22616203
-1.4034345e-06
-1.9234205e-06
0.25986816
1.4485561e-06
0.25986796
2.018474e-06
0.2598681
-1.5436797e-06
-2.1204425e-06
0.29614392
1.5428468e-06
0.29614375
2.1777117e-06
0.29614386
-1.6468699e-06
-2.2876899e-06
0.33520897
1.5998774e-06
0.33520884
2.3057845e-06
0.3352089
-1.7102114e-06
-2.4212182e-06
0.37732151
1.6188899e-06
0.37732142
2.4005429e-06
0.37732144
-1.7329098e-06
-2.518874e-06
0.42276569
1.6013728e-06
0.42276563
2.4620763e-06
0.42276561
-1.7165862e-06
-2.5809094e-06
0.4718394
1.5509933e-06
0.47183937
2.4929144e-06
0.47183932
-1.6651493e-06
-2.6100651e-06
0.52484295
1.4729787e-06
0.52484294
2.4974704e-06
0.52484286
-1.5841339e-06
-2.6110519e-06
0.58206988
1.3732214e-06
0.5820699
2.4810981e-06
0.5820698
-1.4797716e-06
-2.5895286e-06
0.6438009
1.2574146e-06
0.64380094
2.4491037e-06
0.64380082
-1.3581026e-06
-2.5511523e-06
0.71030085
1.1304222e-06
0.7103009
2.405982e-06
0.71030077
-1.2243277e-06
-2.5007544e-06
0.78181825
9.9596001e-07
0.7818183
2.3549023e-06
0.78181816
-1.0824782e-06
-2.4418239e-06
0.85858634
8.5656392e-07
0.8585864
2.2975391e-06
0.85858626
-9.3537671e-07
-2.3763283e-06
0.94082491
7.137637e-07
0.94082498
2.2341628e-06
0.94082483
-7.8480607e-07
-2.3047972e-06
1.0287421
5.6836863e-07
1.0287421
2.163896e-06
1.028742
-6.3179146e-07
-2.2265743e-06
1.1225356
4.2078325e-07
1.1225356
2.085047e-06
1.1225355
-4.7691474e-07
-2.1401478e-06
1.2223935
2.7129645e-07
1.2223936
1.9954505e-06
1.2223935
-3.2060333e-07
-2.0434913e-06
1.3284944
1.2031196e-07
1.3284945
1.892772e-06
1.3284944
-1.6336176e-07
-1.9343686e-06
1.4410065
-3.149159e-08
1.4410066
1.7747551e-06
1.4410065
-5.9339134e-09
-1.8105847e-06
1.5600865
-1.830688e-07
1.5600866
1.6394067e-06
1.5600864
1.50602e-07
-1.6701738e-06
1.6858781
-3.3297474e-07
1.6858783
1.4851273e-06
1.6858781
3.0479699e-07
-1.5115346e-06
1.8185105
-4.7937877e-07
1.8185107
1.3107958e-06
1.8185105
4.5484101e-07
-1.3335194e-06
1.9580959
-6.2011328e-07
1.958096
1.1158228e-06
1.9580959
5.9860728e-07
-1.1354926e-06
2.1047279
-7.5274732e-07
2.1047281
9.0018238e-07
2.1047279
7.3372141e-07
-9.1736728e-07
2.2584796
-8.7467749e-07
2.2584798
6.6443204e-07
2.2584797
8.576479e-07
-6.7962962e-07
2.4194016
-9.832309e-07
2.4194019
4.0972672e-07
2.4194018
9.677888e-07
-4.2335745e-07
2.5875204
-1.0757767e-06
2.5875207
1.3783168e-07
2.5875206
1.0615912e-06
-1.5023716e-07
2.7628366
-1.1498442e-06
2.7628369
-1.4886359e-07
2.7628368
1.1366617e-06
1.3741874e-07
2.9453237
-1.2032456e-06
2.945324
-4.4732899e-07
2.945324
1.1908854e-06
4.36652e-07
3.134927
-1.2342024e-06
3.1349273
-7.5387441e-07
3.1349272
1.2225497e-06
7.4383642e-07
3.3315621
-1.2414729e-06
3.3315624
-1.0641269e-06
3.3315624
1.2304694e-06
1.0546527e-06
3.5351147
-1.2244787e-06
3.5351151
-1.3730048e-06
3.5351151
1.2141106e-06
1.3640608e-06
3.7454398
-1.1834243e-06
3.7454401
-1.6746877e-06
3.7454402
1.1737098e-06
1.6662692e-06
3.9623612
-1.1194058e-06
3.9623615
-1.9625855e-06
3.9623616
1.1103814e-06
1.9547037e-06
4.1856718
-1.0344964e-06
4.185672
-2.2293064e-06
4.1856721
1.026204e-06
2.2219763e-06
4.4151333
-9.3179918e-07
4.4151336
-2.4666323e-06
4.4151337
9.2427433e-07
2.4598636e-06
4.6504773
-8.1544802e-07
4.6504775
-2.6655127e-06
4.6504776
8.0871101e-07
2.6593043e-06
4.8914053
-6.9053682e-07
4.8914055
-2.8161048e-06
4.8914056
6.8458726e-07
2.8104435e-06
5.1375902
-5.6294939e-07
5.1375903
-2.9079028e-06
5.1375904
5.5776523e-07
2.9027674e-06
5.3886772
-4.3905938e-07
5.3886772
-2.930034e-06
5.3886773
4.3460018e-07
2.925403e-06
5.6442852
-3.2526849e-07
5.6442851
-2.871844e-06
5.6442853
3.2148157e-07
2.8677035e-06
5.9040089
-2.2735872e-07
5.9040087
-2.7239444e-06
5.9040088
2.2418621e-07
2.7202939e-06
6.1674202
-1.4966151e-07
6.1674199
-2.4799591e-06
6.16742
1.4704606e-07
2.4768116e-06
6.4340706
-9.4106551e-08
6.4340703
-2.1392454e-06
6.4340703
9.1994451e-08
2.1366249e-06
6.7034936
-5.9324385e-08
6.7034932
-1.7108309e-06
6.7034932
5.7665349e-08
1.7087781e-06
6.975207
-4.016245e-08
6.9752065
-1.2185097e-06
6.9752065
3.8895935e-08
1.2171126e-06
7.2487154
-2.8264999e-08
7.2487149
-7.0659003e-07
7.2487149
2.7252323e-08
7.0604514e-07
7.5235135
-1.5084747e-08
7.523513
-2.5048494e-07
7.523513
1.3985721e-08
2.5118457e-07
7.7990882
7.799088
7.799088
)
;

boundaryField
{
    movingWall
    {
        type            calculated;
        value           uniform 0;
    }
    CPLReceiveMD
    {
        type            calculated;
        value           uniform 0;
    }
    streamwiseIn
    {
        type            cyclic;
        value           nonuniform List<scalar> 
120
(
-0.029046964
-0.10545763
-0.088963734
-0.075439885
-0.072895884
-0.080385512
-0.095374513
-0.11554077
-0.13932875
-0.16589059
-0.19486177
-0.22616227
-0.25986833
-0.29614406
-0.33520907
-0.37732158
-0.42276572
-0.4718394
-0.52484292
-0.58206983
-0.64380083
-0.71030077
-0.78181816
-0.85858624
-0.94082481
-1.028742
-1.1225354
-1.2223934
-1.3284943
-1.4410064
-1.5600863
-1.685878
-1.8185104
-1.9580957
-2.1047278
-2.2584795
-2.4194015
-2.5875203
-2.7628365
-2.9453237
-3.1349269
-3.3315621
-3.5351148
-3.7454399
-3.9623613
-4.1856718
-4.4151334
-4.6504774
-4.8914054
-5.1375903
-5.3886772
-5.6442853
-5.9040089
-6.1674202
-6.4340706
-6.7034936
-6.975207
-7.2487154
-7.5235135
-7.7990882
-0.029046861
-0.10545715
-0.088963576
-0.075439634
-0.072895864
-0.08038553
-0.095374533
-0.11554078
-0.13932875
-0.16589058
-0.19486174
-0.22616224
-0.25986829
-0.29614402
-0.33520903
-0.37732154
-0.42276567
-0.47183935
-0.52484287
-0.58206978
-0.64380078
-0.71030072
-0.78181811
-0.8585862
-0.94082477
-1.0287419
-1.1225354
-1.2223934
-1.3284943
-1.4410063
-1.5600863
-1.685878
-1.8185103
-1.9580957
-2.1047277
-2.2584795
-2.4194015
-2.5875203
-2.7628365
-2.9453237
-3.1349269
-3.3315621
-3.5351148
-3.7454399
-3.9623613
-4.1856719
-4.4151334
-4.6504774
-4.8914054
-5.1375903
-5.3886773
-5.6442853
-5.904009
-6.1674202
-6.4340707
-6.7034937
-6.975207
-7.2487155
-7.5235135
-7.7990882
)
;
    }
    streamwiseOut
    {
        type            cyclic;
        value           nonuniform List<scalar> 
120
(
0.029046964
0.10545763
0.088963734
0.075439885
0.072895884
0.080385512
0.095374513
0.11554077
0.13932875
0.16589059
0.19486177
0.22616227
0.25986833
0.29614406
0.33520907
0.37732158
0.42276572
0.4718394
0.52484292
0.58206983
0.64380083
0.71030077
0.78181816
0.85858624
0.94082481
1.028742
1.1225354
1.2223934
1.3284943
1.4410064
1.5600863
1.685878
1.8185104
1.9580957
2.1047278
2.2584795
2.4194015
2.5875203
2.7628365
2.9453237
3.1349269
3.3315621
3.5351148
3.7454399
3.9623613
4.1856718
4.4151334
4.6504774
4.8914054
5.1375903
5.3886772
5.6442853
5.9040089
6.1674202
6.4340706
6.7034936
6.975207
7.2487154
7.5235135
7.7990882
0.029046861
0.10545715
0.088963576
0.075439634
0.072895864
0.08038553
0.095374533
0.11554078
0.13932875
0.16589058
0.19486174
0.22616224
0.25986829
0.29614402
0.33520903
0.37732154
0.42276567
0.47183935
0.52484287
0.58206978
0.64380078
0.71030072
0.78181811
0.8585862
0.94082477
1.0287419
1.1225354
1.2223934
1.3284943
1.4410063
1.5600863
1.685878
1.8185103
1.9580957
2.1047277
2.2584795
2.4194015
2.5875203
2.7628365
2.9453237
3.1349269
3.3315621
3.5351148
3.7454399
3.9623613
4.1856719
4.4151334
4.6504774
4.8914054
5.1375903
5.3886773
5.6442853
5.904009
6.1674202
6.4340707
6.7034937
6.975207
7.2487155
7.5235135
7.7990882
)
;
    }
    front
    {
        type            cyclic;
        value           nonuniform 0();
    }
    back
    {
        type            cyclic;
        value           nonuniform 0();
    }
    procBoundary0to1
    {
        type            processor;
        value           nonuniform List<scalar> 
240
(
-9.1409462e-09
-2.0292807e-09
-1.7520361e-09
4.6044566e-09
-9.0807864e-09
-7.7143709e-09
-1.216088e-09
7.806357e-09
-6.8479019e-09
-6.8727197e-09
-2.0975463e-09
7.5208047e-09
-2.9814045e-09
-2.9990746e-09
-4.0551579e-09
4.4128702e-09
-1.7240356e-09
8.5734317e-10
-3.574022e-09
1.4755653e-09
-5.8774654e-10
2.9412547e-09
-3.6944981e-09
7.6668967e-11
-2.7779647e-10
3.8207256e-09
-3.1750726e-09
-3.9080054e-10
-5.3422134e-10
3.6966308e-09
-2.3878602e-09
-2.0386669e-10
-9.0390759e-10
3.0514097e-09
-1.6066034e-09
2.6389413e-10
-1.0703681e-09
2.2355777e-09
-9.5216119e-10
7.2961922e-10
-9.858293e-10
1.460023e-09
-4.8412371e-10
1.0392568e-09
-9.033015e-10
8.2008237e-10
-1.9318651e-10
1.1438715e-09
-7.1465998e-10
3.3651968e-10
8.3467734e-11
9.8988038e-10
-4.6307238e-10
-6.357041e-12
2.6867627e-10
8.4269931e-10
-1.9663071e-10
-2.3763619e-10
3.9311363e-10
6.1440986e-10
5.0406384e-11
-3.862742e-10
4.7541429e-10
3.5881713e-10
2.5838781e-10
-4.5338428e-10
5.2655542e-10
1.1019911e-10
4.1883241e-10
-4.9662202e-10
5.5342252e-10
-1.1097346e-10
5.3081495e-10
-5.2174353e-10
5.6106975e-10
-2.780873e-10
5.9886037e-10
-5.3021126e-10
5.5390867e-10
-4.117898e-10
6.2815253e-10
-5.1393275e-10
5.361497e-10
-5.1499296e-10
6.2528484e-10
-4.9196763e-10
5.116708e-10
-5.8066086e-10
5.9721243e-10
-4.6767465e-10
4.8333244e-10
-6.1336976e-10
5.5051131e-10
-4.4305028e-10
4.5331243e-10
-6.1855679e-10
4.9088575e-10
-4.1890559e-10
4.230264e-10
-6.0141178e-10
4.22879e-10
-3.9513871e-10
3.9319054e-10
-5.6644013e-10
3.4978377e-10
-3.7103835e-10
3.6395888e-10
-5.1727693e-10
2.7368876e-10
-3.4557395e-10
3.3508006e-10
-4.5666274e-10
1.9564106e-10
-3.1763819e-10
3.0604892e-10
-3.8652991e-10
1.1594031e-10
-2.8622466e-10
2.7617271e-10
-3.081579e-10
3.4207423e-11
-2.5054022e-10
2.448894e-10
-2.2236069e-10
-5.0171797e-11
-2.1005977e-10
2.1158357e-10
-1.2967577e-10
-1.3787186e-10
-1.6453771e-10
1.757393e-10
-3.0532742e-11
-2.2949294e-10
-1.1399002e-10
1.3697762e-10
7.4610736e-11
-3.2544121e-10
-5.8659402e-11
9.5068895e-11
1.8517288e-10
-4.2585862e-10
1.0266625e-12
4.9935059e-11
3.0038828e-10
-5.3059247e-10
6.4499133e-11
1.6439947e-12
4.1928286e-10
-6.3919524e-10
1.3108789e-10
-4.960365e-11
5.406755e-10
-7.5095248e-10
2.0005844e-10
-1.034964e-10
6.6319805e-10
-8.6490607e-10
2.7064662e-10
-1.5961162e-10
7.8533008e-10
-9.7990273e-10
3.4209124e-10
-2.1745158e-10
9.0544267e-10
-1.0946349e-09
4.1366908e-10
-2.7645757e-10
1.0218409e-09
-1.20768e-09
4.8473392e-10
-3.3602168e-10
1.1328102e-09
-1.317535e-09
5.547607e-10
-3.9549663e-10
1.2366561e-09
-1.4226464e-09
6.2339483e-10
-4.5419992e-10
1.3317346e-09
-1.5214379e-09
6.9050259e-10
-5.1141158e-10
1.4164691e-09
-1.6123382e-09
7.5621377e-10
-5.6636511e-10
1.4893514e-09
-1.6938187e-09
8.2093951e-10
-6.182325e-10
1.5489247e-09
-1.7644527e-09
8.8534035e-10
-6.6611079e-10
1.5937619e-09
-1.8230108e-09
9.5020595e-10
-7.090223e-10
1.6224645e-09
-1.8686049e-09
1.0161877e-09
-7.4595677e-10
1.6337342e-09
-1.9008862e-09
1.0833001e-09
-7.7599478e-10
1.6265835e-09
-1.9202303e-09
1.1500639e-09
-7.985903e-10
1.6007797e-09
-1.9277955e-09
1.21212e-09
-8.1398858e-10
1.5575797e-09
-1.9251914e-09
1.2600506e-09
-8.2364305e-10
1.500832e-09
-1.9133403e-09
1.2762445e-09
-8.3002131e-10
1.4383202e-09
-1.8901325e-09
1.2294434e-09
-8.3319891e-10
1.3837374e-09
-1.8477863e-09
1.0691755e-09
-8.1554219e-10
1.3595901e-09
-1.7750155e-09
7.1107212e-10
-7.1465503e-10
1.4117934e-09
-1.49381e-09
7.1272112e-11
-4.7617069e-10
1.4170962e-09
)
;
    }
    procBoundary0to1throughfront
    {
        type            processorCyclic;
        value           nonuniform List<scalar> 
240
(
-4.729332e-09
-2.7638374e-09
-3.1997142e-09
-3.7536688e-09
-2.9214283e-09
-1.4041659e-09
-2.2463013e-10
7.5033951e-10
1.4490494e-09
1.7937834e-09
1.7820008e-09
1.7296008e-09
1.4834684e-09
1.1386945e-09
7.6690616e-10
4.1574114e-10
1.1244859e-10
-1.3073677e-10
-3.1173449e-10
-4.3556546e-10
-5.0876884e-10
-5.3964897e-10
-5.3695863e-10
-5.0896234e-10
-4.6284915e-10
-4.0441022e-10
-3.3795012e-10
-2.6635524e-10
-1.9128538e-10
-1.1350177e-10
-3.2960434e-11
5.0708545e-11
1.3800906e-10
2.294238e-10
3.2528077e-10
4.256712e-10
5.3041066e-10
6.3903296e-10
7.5081333e-10
8.6478857e-10
9.7980359e-10
1.0945507e-09
1.2076078e-09
1.3174729e-09
1.4225935e-09
1.5213939e-09
1.6123034e-09
1.6937935e-09
1.7644374e-09
1.823005e-09
1.8686094e-09
1.9008981e-09
1.9202472e-09
1.9278137e-09
1.9252067e-09
1.9133488e-09
1.8901309e-09
1.8477762e-09
1.7750019e-09
1.4938016e-09
1.7639724e-09
5.8023347e-09
4.2994077e-09
4.1674403e-10
-3.1381039e-09
-4.7895908e-09
-5.296743e-09
-4.8771501e-09
-3.9765115e-09
-2.9369103e-09
-1.971278e-09
-1.1776802e-09
-5.7551461e-10
-1.4522148e-10
1.4712719e-10
3.3434495e-10
4.4060347e-10
4.9035981e-10
5.3906956e-10
5.526579e-10
5.4101264e-10
5.1898626e-10
4.9276265e-10
4.6539049e-10
4.3821807e-10
4.1144862e-10
3.845452e-10
3.5656998e-10
3.2645426e-10
2.9319504e-10
2.5598065e-10
2.1425536e-10
1.6773724e-10
1.1640474e-10
6.0464653e-11
3.117216e-13
-6.351372e-11
-1.3036592e-10
-1.9953084e-10
-2.7026094e-10
-3.4180832e-10
-4.1346019e-10
-4.8457821e-10
-5.5464342e-10
-6.2330552e-10
-6.9043427e-10
-7.561615e-10
-8.208998e-10
-8.8531093e-10
-9.5018494e-10
-1.0161735e-09
-1.0832914e-09
-1.15006e-09
-1.2121198e-09
-1.2600523e-09
-1.2762466e-09
-1.2294441e-09
-1.0691741e-09
-7.110692e-10
-7.1270003e-11
-1.1866919e-09
-3.0352328e-09
-2.1383765e-09
7.2978093e-10
1.0389256e-09
2.2018961e-09
2.4055084e-09
2.104896e-09
1.6390132e-09
1.1686648e-09
8.0774232e-10
5.6211741e-10
2.9843369e-10
8.6794221e-11
-8.1147423e-11
-2.1279636e-10
-3.1261033e-10
-3.838361e-10
-4.2986524e-10
-4.5462017e-10
-4.6255448e-10
-4.5820399e-10
-4.452556e-10
-4.2674392e-10
-4.0488368e-10
-3.8108965e-10
-3.5609946e-10
-3.3013213e-10
-3.0305085e-10
-2.7444573e-10
-2.4396144e-10
-2.1113694e-10
-1.7556527e-10
-1.3694374e-10
-9.5094888e-11
-4.9975114e-11
-1.6744301e-12
4.9592613e-11
1.0350792e-10
1.596418e-10
2.174959e-10
2.76511e-10
3.360795e-10
3.9555477e-10
4.542552e-10
5.1146188e-10
5.6640891e-10
6.1826911e-10
6.661401e-10
7.0904476e-10
7.4597293e-10
7.7600491e-10
7.9859443e-10
8.1398524e-10
8.2363289e-10
8.3000456e-10
8.3317677e-10
8.1551766e-10
7.1463394e-10
4.7616147e-10
-2.0199258e-09
-6.6763405e-09
-7.7083866e-09
-5.0650815e-09
-2.2401372e-09
-8.7664424e-10
-3.5201538e-10
-5.0509164e-10
-9.1322253e-10
-1.2941826e-09
-1.5097362e-09
-1.5326177e-09
-1.3022247e-09
-1.0453079e-09
-7.5033138e-10
-4.4664989e-10
-1.6321159e-10
8.1637334e-11
2.6398326e-10
4.1526589e-10
5.269392e-10
5.9664695e-10
6.3085364e-10
6.3593188e-10
6.1769247e-10
5.8107904e-10
5.3003299e-10
4.6750114e-10
3.9554647e-10
3.1552334e-10
2.2828087e-10
1.3436482e-10
3.4196556e-11
-7.1784674e-11
-1.830198e-10
-2.9876753e-10
-4.1807732e-10
-5.3978952e-10
-6.6255483e-10
-7.8486879e-10
-9.0511591e-10
-1.0216123e-09
-1.132652e-09
-1.236548e-09
-1.3316615e-09
-1.4164204e-09
-1.4893195e-09
-1.5489046e-09
-1.5937507e-09
-1.6224603e-09
-1.6337346e-09
-1.6265868e-09
-1.6007836e-09
-1.5575813e-09
-1.5008268e-09
-1.4383071e-09
-1.3837159e-09
-1.3595633e-09
-1.4117683e-09
-1.4170831e-09
)
;
    }
}


// ************************************************************************* //
