/*--------------------------------*- C++ -*----------------------------------*\
| =========                 |                                                 |
| \\      /  F ield         | OpenFOAM: The Open Source CFD Toolbox           |
|  \\    /   O peration     | Version:  3.0.x                                 |
|   \\  /    A nd           | Web:      www.OpenFOAM.org                      |
|    \\/     M anipulation  |                                                 |
\*---------------------------------------------------------------------------*/
FoamFile
{
    version     2.0;
    format      ascii;
    class       surfaceScalarField;
    location    "475";
    object      phi;
}
// * * * * * * * * * * * * * * * * * * * * * * * * * * * * * * * * * * * * * //

dimensions      [0 3 -1 0 0 0 0];

internalField   nonuniform List<scalar> 
2384
(
-0.048762201
-3.5714109e-07
-8.8984417e-09
-0.048762453
2.3794899e-07
2.9257273e-09
-0.048762222
-2.5231079e-07
-2.7205855e-09
-2.9287592e-07
8.4185407e-10
0.19784546
1.6576418e-07
-1.4859039e-08
0.19784493
7.4438458e-07
-4.0664204e-10
0.19784542
-7.1369664e-07
-6.3130626e-09
-8.2390072e-07
-4.5448788e-09
0.29094245
6.1606022e-07
-1.7291181e-08
0.29094201
1.1809444e-06
-1.5671043e-09
0.2909424
-1.0941564e-06
-7.1037633e-09
-1.292759e-06
-6.8008612e-09
0.32030968
8.731315e-07
-1.643753e-08
0.32030945
1.408694e-06
-2.660975e-09
0.32030965
-1.2820026e-06
-6.7143761e-09
-1.553236e-06
-7.5427491e-09
0.3303293
9.2108295e-07
-1.301142e-08
0.33032928
1.4153932e-06
-2.8122511e-09
0.33032929
-1.2748774e-06
-5.8764318e-09
-1.5862687e-06
-7.4261269e-09
0.33822016
9.1596377e-07
-9.7339609e-09
0.33822021
1.3631423e-06
-2.6894243e-09
0.33822017
-1.2292733e-06
-4.8961576e-09
-1.5531467e-06
-6.8108727e-09
0.34877477
9.4305537e-07
-7.2104836e-09
0.34877477
1.3549106e-06
-2.4695285e-09
0.34877478
-1.2271876e-06
-4.0091931e-09
-1.5577144e-06
-6.0187006e-09
0.3624277
9.9893e-07
-5.3495911e-09
0.36242765
1.3963649e-06
-2.2165834e-09
0.36242769
-1.2618289e-06
-3.2678549e-09
-1.6066931e-06
-5.1887203e-09
0.37884978
1.0432831e-06
-3.9741961e-09
0.37884973
1.444594e-06
-1.9531044e-09
0.37884976
-1.2902552e-06
-2.6608032e-09
-1.6582295e-06
-4.39176e-09
0.39802081
1.0427202e-06
-2.9554419e-09
0.39802079
1.457942e-06
-1.6898522e-09
0.39802078
-1.2771951e-06
-2.1666357e-09
-1.6716807e-06
-3.6648434e-09
0.42027735
9.8698263e-07
-2.2034657e-09
0.42027739
1.4184265e-06
-1.4364956e-09
0.42027732
-1.2111357e-06
-1.7620298e-09
-1.6299683e-06
-3.023508e-09
0.44610816
8.8549423e-07
-1.6260539e-09
0.44610825
1.3312956e-06
-1.2002929e-09
0.44610814
-1.1007646e-06
-1.4281515e-09
-1.5390956e-06
-2.4704621e-09
0.47598185
7.571657e-07
-1.1863104e-09
0.47598197
1.2147906e-06
-9.8588984e-10
0.47598184
-9.6452633e-07
-1.1510802e-09
-1.417891e-06
-2.001374e-09
0.51026453
6.212786e-07
-8.5942673e-10
0.51026466
1.0897147e-06
-7.9629747e-10
0.51026452
-8.2140319e-07
-9.2124197e-10
-1.2875825e-06
-1.6085863e-09
0.54920654
4.9235578e-07
-6.2972251e-10
0.54920666
9.7286284e-07
-6.3264709e-10
0.54920652
-6.8574007e-07
-7.319024e-10
-1.1652525e-06
-1.2832732e-09
0.59296434
3.7872204e-07
-4.7342803e-10
0.59296444
8.7456561e-07
-4.9120493e-10
0.59296432
-5.6577056e-07
-5.7663902e-10
-1.0614207e-06
-1.0165588e-09
0.64163232
2.8333728e-07
-3.5455996e-10
0.6416324
7.9901104e-07
-3.6833197e-10
0.6416323
-4.6438464e-07
-4.4989078e-10
-9.8039424e-07
-7.9998063e-10
0.69527125
2.0544132e-07
-2.742662e-10
0.6952713
7.4582244e-07
-2.5496866e-10
0.69527122
-3.8076631e-07
-3.4662772e-10
-9.2187293e-07
-6.258236e-10
0.75392884
1.4216189e-07
-1.9284503e-10
0.75392888
7.1190071e-07
-1.8058862e-10
0.75392881
-3.1203474e-07
-2.6229715e-10
-8.8275432e-07
-4.872073e-10
0.81765254
8.9832462e-08
-1.2945742e-10
0.81765256
6.9281156e-07
-1.3629839e-10
0.81765251
-2.5450938e-07
-1.9308368e-10
-8.5861125e-07
-3.7801032e-10
0.88649613
4.4786573e-08
-8.0087702e-11
0.88649614
6.8376649e-07
-9.0026484e-11
0.88649609
-2.0451895e-07
-1.3558751e-10
-8.4469901e-07
-2.9287657e-10
0.9605223
3.8072981e-09
-4.1839628e-11
0.9605223
6.8026999e-07
-5.074585e-11
0.96052226
-1.5882888e-07
-1.0049411e-10
-8.3654001e-07
-2.2719594e-10
1.0398028
-3.5681225e-08
-1.2550561e-11
1.0398028
6.7837536e-07
-1.9023318e-11
1.0398027
-1.1487917e-07
-7.4496564e-11
-8.3020363e-07
-1.7707579e-10
1.1244169
-7.5576226e-08
9.4223654e-12
1.1244169
6.7477201e-07
6.2717523e-12
1.1244169
-7.0782871e-08
-5.1773373e-11
-8.2239322e-07
-1.3923664e-10
1.21445
-1.1713881e-07
2.5364463e-11
1.2144501
6.6677129e-07
2.6140124e-11
1.21445
-2.528226e-08
-3.4453141e-11
-8.1043024e-07
-1.1093201e-10
1.3099908
-1.6107048e-07
3.6321064e-11
1.3099908
6.5224647e-07
4.1452501e-11
1.3099907
2.2326242e-08
-2.154048e-11
-7.9219275e-07
-8.9906443e-11
1.411129
-2.0759806e-07
4.3092488e-11
1.4111291
6.2956016e-07
5.29561e-11
1.411129
7.2277749e-08
-1.2127256e-11
-7.6604166e-07
-7.433936e-11
1.5179536
-2.5655484e-07
4.6334174e-11
1.5179536
5.9749589e-07
6.1285444e-11
1.5179536
1.2442046e-07
-5.4491346e-12
-7.3075176e-07
-6.2783203e-11
1.63055
-3.0745367e-07
4.6603e-11
1.63055
5.5520066e-07
6.6974882e-11
1.63055
1.7828854e-07
-8.6674443e-13
-6.8545414e-07
-5.4103142e-11
1.7489982
-3.5955174e-07
4.4382431e-11
1.7489982
5.0213962e-07
7.0470502e-11
1.7489982
2.3316626e-07
2.0440084e-12
-6.2959124e-07
-4.7409924e-11
1.8733706
-4.119082e-07
4.0099583e-11
1.8733707
4.3806152e-07
7.2145583e-11
1.8733706
2.8814469e-07
3.6582202e-12
-5.6288309e-07
-4.2011006e-11
2.0037305
-4.634366e-07
3.4135344e-11
2.0037306
3.6297274e-07
7.2312395e-11
2.0037305
3.4217292e-07
4.2977278e-12
-4.8530238e-07
-3.7362431e-11
2.1401297
-5.1295364e-07
2.6830324e-11
2.1401297
2.7711766e-07
7.1231305e-11
2.1401297
3.9410565e-07
4.2370558e-12
-3.9705602e-07
-3.3041297e-11
2.282607
-5.5922541e-07
1.8494076e-11
2.2826071
1.8096355e-07
6.911845e-11
2.2826071
4.4274826e-07
3.7069954e-12
-2.9857134e-07
-2.8723299e-11
2.4311871
-6.0101051e-07
8.8132547e-12
2.4311872
7.5188922e-08
6.6152063e-11
2.4311872
4.869003e-07
2.9008967e-12
-1.9048554e-07
-2.4164469e-11
2.5858786
-6.3710726e-07
-8.2582914e-13
2.5858787
-3.9325832e-08
6.2476633e-11
2.5858787
5.2539843e-07
1.6672617e-12
-7.3637737e-08
-1.9187943e-11
2.7466728
-6.6639163e-07
-1.0811009e-11
2.746673
-1.6150547e-07
5.8214353e-11
2.7466729
5.5715575e-07
6.6071479e-13
5.0937161e-08
-1.3665479e-11
2.9135432
-6.8785935e-07
-2.09818e-11
2.9135433
-2.9008504e-07
5.3468389e-11
2.9135433
5.8120351e-07
-2.2841633e-13
1.8201274e-07
-7.508636e-12
3.0864436
-7.0066534e-07
-3.1170082e-11
3.0864437
-4.2361288e-07
4.8325752e-11
3.0864437
5.967296e-07
-9.9879664e-13
3.181733e-07
-6.6217462e-13
3.2653081
-7.0416126e-07
-4.1222639e-11
3.2653082
-5.60451e-07
4.2860919e-11
3.2653082
6.0311544e-07
-1.5997752e-12
4.5781361e-07
6.9021242e-12
3.45005
-6.9793082e-07
-5.1001068e-11
3.4500502
-6.9877237e-07
3.713888e-11
3.4500502
5.9997092e-07
-1.9905837e-12
5.9913568e-07
1.5192535e-11
3.6405616
-6.8182217e-07
-6.0379427e-11
3.6405618
-8.3655395e-07
3.1218291e-11
3.6405618
5.8716643e-07
-2.1423119e-12
7.4014125e-07
2.4262889e-11
3.8367137
-6.5597644e-07
-6.9240359e-11
3.8367138
-9.7156435e-07
2.5154217e-11
3.8367139
5.6486118e-07
-2.0347538e-12
8.7861966e-07
3.389963e-11
4.0383554
-6.2085144e-07
-7.7473525e-11
4.0383555
-1.1013446e-06
1.9000772e-11
4.0383556
5.3352662e-07
-1.6552761e-12
1.0121279e-06
4.4174363e-11
4.2453143
-5.7723885e-07
-8.4972515e-11
4.2453144
-1.2231808e-06
1.2813018e-11
4.2453144
4.9396341e-07
-9.9685477e-13
1.137963e-06
5.501931e-11
4.4573965
-5.2627311e-07
-9.1633143e-11
4.4573966
-1.334067e-06
6.6490525e-12
4.4573966
4.473101e-07
-5.7670448e-14
1.2531252e-06
6.6352273e-11
4.6743869
-4.6942922e-07
-9.7351623e-11
4.674387
-1.4306593e-06
5.7127762e-13
4.6743871
3.9504068e-07
1.1580583e-12
1.3542719e-06
7.8073517e-11
4.8960499
-4.085058e-07
-1.0202441e-10
4.89605
-1.5092222e-06
-5.349211e-12
4.8960501
3.3894743e-07
2.6375941e-12
1.4376635e-06
9.006331e-11
5.1221298
-3.4558844e-07
-1.0554967e-10
5.1221299
-1.5655757e-06
-1.1039665e-11
5.1221299
2.8110416e-07
4.3543396e-12
1.4991109e-06
1.0217843e-10
5.3523516
-2.8298634e-07
-1.0783089e-10
5.3523516
-1.5950558e-06
-1.6421346e-11
5.3523516
2.2380282e-07
6.2658306e-12
1.5339363e-06
1.1424892e-10
5.5864219
-2.2313335e-07
-1.0878356e-10
5.5864219
-1.5925225e-06
-2.1418452e-11
5.5864219
1.6945478e-07
8.311924e-12
1.5369811e-06
1.260746e-10
5.8240301
-1.6844157e-07
-1.0834741e-10
5.8240301
-1.5524716e-06
-2.5935896e-11
5.8240301
1.2044527e-07
1.0379147e-11
1.5027192e-06
1.3742298e-10
6.0648497
-1.21094e-07
-1.0650388e-10
6.0648496
-1.4693612e-06
-2.9898892e-11
6.0648497
7.8927464e-08
1.2334437e-11
1.4255847e-06
1.4802589e-10
6.3085392
-8.2764061e-08
-1.0330307e-10
6.3085391
-1.3383428e-06
-3.322716e-11
6.3085391
4.6544449e-08
1.3992374e-11
1.3007048e-06
1.575762e-10
6.5547439
-5.426165e-08
-9.8893923e-11
6.5547437
-1.1567037e-06
-3.5845885e-11
6.5547437
2.4078437e-08
1.5145799e-11
1.1253463e-06
1.657352e-10
6.8030973
-3.5142944e-08
-9.3562373e-11
6.8030971
-9.2645412e-07
-3.7693554e-11
6.8030971
1.1064599e-08
1.5563309e-11
9.0150653e-07
1.7209945e-10
7.0532229
-2.3407582e-08
-8.7848009e-11
7.0532226
-6.5843715e-07
-3.8704545e-11
7.0532226
5.4954502e-09
1.4860547e-11
6.4002578e-07
1.7590708e-10
7.3047356
-1.5563563e-08
-8.2581261e-11
7.3047353
-3.7775427e-07
-3.8446471e-11
7.3047353
3.8939842e-09
1.263872e-11
3.6601126e-07
1.7564965e-10
7.5572439
-7.6835512e-09
-7.7720092e-11
7.5572437
-1.2978747e-07
-3.4086841e-11
7.5572437
2.3370135e-09
9.8979148e-12
1.248273e-07
1.70636e-10
7.8103515
-6.2395567e-11
7.8103513
-1.7425068e-11
7.8103513
1.0368923e-11
1.4516356e-10
-0.048762236
2.2518568e-07
-4.6291021e-09
-0.048762508
2.4962153e-07
2.300152e-09
-0.048762279
-2.4659659e-07
2.6368043e-09
-2.6948781e-07
4.4992177e-09
0.19784534
6.3548761e-07
-1.8948955e-08
0.19784482
7.5468789e-07
-9.5053324e-10
0.19784525
-6.8093236e-07
1.6998839e-09
-7.8823014e-07
2.2328728e-09
0.2909423
9.8021471e-07
-1.6798404e-08
0.29094187
1.1965723e-06
-2.3470189e-09
0.29094222
-1.0497464e-06
1.4713671e-09
-1.2497319e-06
1.8129864e-09
0.32030956
1.1332625e-06
-1.2874579e-08
0.32030933
1.4219575e-06
-2.5849323e-09
0.3203095
-1.2264228e-06
1.3795041e-09
-1.4973974e-06
1.907559e-09
0.33032922
1.1035141e-06
-9.2956412e-09
0.33032921
1.4268173e-06
-2.4250247e-09
0.33032919
-1.2181261e-06
1.2381304e-09
-1.5244352e-06
2.0450383e-09
0.33822013
1.0456378e-06
-6.57904e-09
0.33822017
1.3757356e-06
-2.0488115e-09
0.33822013
-1.1787705e-06
9.6133829e-10
-1.4939652e-06
1.9782885e-09
0.34877476
1.0368703e-06
-4.7048557e-09
0.34877476
1.3696694e-06
-1.5302209e-09
0.34877476
-1.185303e-06
7.0604441e-10
-1.5061313e-06
1.8002936e-09
0.36242768
1.0674338e-06
-3.3810941e-09
0.36242764
1.4124825e-06
-1.1241563e-09
0.36242767
-1.2279439e-06
5.0679481e-10
-1.564146e-06
1.5751003e-09
0.37884975
1.0932417e-06
-2.4348967e-09
0.3788497
1.4605852e-06
-8.3877282e-10
0.37884973
-1.2627866e-06
3.6399052e-10
-1.6241581e-06
1.3445131e-09
0.39802077
1.0788384e-06
-1.755726e-09
0.39802075
1.4725082e-06
-6.2161102e-10
0.39802074
-1.254711e-06
2.652253e-10
-1.644817e-06
1.1302436e-09
0.4202773
1.0127496e-06
-1.2714238e-09
0.42027735
1.4308172e-06
-4.6892145e-10
0.42027728
-1.192659e-06
1.9611523e-10
-1.609016e-06
9.4040838e-10
0.44610812
9.0362994e-07
-9.2825872e-10
0.44610821
1.3412908e-06
-3.6887472e-10
0.4461081
-1.0856847e-06
1.4552923e-10
-1.5229564e-06
7.7616866e-10
0.47598182
7.6974722e-07
-6.8579865e-10
0.47598194
1.2225389e-06
-3.1067516e-10
0.4759818
-9.5244107e-07
1.2036864e-10
-1.4056806e-06
6.3580313e-10
0.5102645
6.2983068e-07
-5.1466244e-10
0.51026463
1.095543e-06
-2.6514273e-10
0.51026449
-8.1198842e-07
1.1152531e-10
-1.278582e-06
5.1683574e-10
0.54920651
4.9796441e-07
-3.9389042e-10
0.54920664
9.7714553e-07
-2.2055786e-10
0.5492065
-6.7865701e-07
8.0897716e-11
-1.1588602e-06
4.1685132e-10
0.59296432
3.8216373e-07
-3.0846066e-10
0.59296442
8.7766794e-07
-1.8290543e-10
0.59296431
-5.6067642e-07
5.3988524e-11
-1.0571217e-06
3.3358709e-10
0.64163231
2.8516901e-07
-2.4804405e-10
0.64163239
8.0126255e-07
-1.5340094e-10
0.64163228
-4.6092706e-07
1.7405254e-11
-9.7774588e-07
2.6499139e-10
0.69527123
2.0604533e-07
-2.0560175e-10
0.69527129
7.4751674e-07
-1.3096754e-10
0.6952712
-3.7861669e-07
-8.8765811e-12
-9.2049941e-07
2.0916917e-10
0.75392882
1.4185246e-07
-1.7503609e-10
0.75392886
7.1321493e-07
-1.1629823e-10
0.75392879
-3.1090368e-07
-2.1843515e-11
-8.8234202e-07
1.6441183e-10
0.81765252
8.8844891e-08
-1.5298538e-10
0.81765255
6.9384139e-07
-1.058762e-10
0.81765249
-2.5414478e-07
-2.8348265e-11
-8.5890507e-07
1.2910879e-10
0.88649611
4.3303579e-08
-1.3689428e-10
0.88649612
6.8460515e-07
-9.8813849e-11
0.88649607
-2.0470784e-07
-3.1576049e-11
-8.454965e-07
1.0175821e-10
0.96052228
1.9739041e-09
-1.2483249e-10
0.96052228
6.8098222e-07
-9.4334563e-11
0.96052224
-1.594274e-07
-3.3164162e-11
-8.3768426e-07
8.0978229e-11
1.0398027
-3.7748492e-08
-1.1536301e-10
1.0398027
6.7900207e-07
-9.1714154e-11
1.0398027
-1.1576818e-07
-3.352323e-11
-8.315741e-07
6.5529289e-11
1.1244169
-7.7783321e-08
-1.0742715e-10
1.1244169
6.7533664e-07
-9.0314023e-11
1.1244169
-7.1865467e-08
-3.2882021e-11
-8.2389758e-07
5.4316633e-11
1.21445
-1.1941001e-07
-1.0029636e-10
1.21445
6.6728468e-07
-8.9616426e-11
1.21445
-2.6486603e-08
-3.1512831e-11
-8.1199745e-07
4.6384136e-11
1.3099908
-1.6334535e-07
-9.3464529e-11
1.3099908
6.5271069e-07
-8.9213068e-11
1.3099907
2.1050573e-08
-2.958847e-11
-7.9376729e-07
4.0912235e-11
1.411129
-2.09829e-07
-8.6540718e-11
1.411129
6.2997141e-07
-8.8792321e-11
1.411129
7.0963565e-08
-2.7274184e-11
-7.6757905e-07
3.720902e-11
1.5179536
-2.5870508e-07
-7.9262101e-11
1.5179536
5.9784654e-07
-8.812744e-11
1.5179536
1.2308643e-07
-2.4693295e-11
-7.3221528e-07
3.4696649e-11
1.63055
-3.0949544e-07
-7.1471555e-11
1.63055
5.5548073e-07
-8.7064279e-11
1.63055
1.7694253e-07
-2.2180405e-11
-6.8681253e-07
3.2897224e-11
1.7489981
-3.6146453e-07
-6.3096047e-11
1.7489982
5.0233764e-07
-8.5507301e-11
1.7489981
2.3180759e-07
-1.9561802e-11
-6.3081723e-07
3.1428196e-11
1.8733706
-4.1367721e-07
-5.4127048e-11
1.8733707
4.3816513e-07
-8.3409777e-11
1.8733706
2.8676637e-07
-1.6903594e-11
-5.6395258e-07
2.998252e-11
2.0037305
-4.6505132e-07
-4.4603808e-11
2.0037306
3.62969e-07
-8.0762152e-11
2.0037305
3.4076365e-07
-1.4259283e-11
-4.8619397e-07
2.8317613e-11
2.1401296
-5.1440658e-07
-3.4591203e-11
2.1401297
2.7699318e-07
-7.7580907e-11
2.1401297
3.9265153e-07
-1.1684401e-11
-3.977508e-07
2.6244149e-11
2.282607
-5.6051109e-07
-2.4114252e-11
2.2826071
1.8070468e-07
-7.3898952e-11
2.2826071
4.4123427e-07
-9.2282018e-12
-2.9905284e-07
2.3617296e-11
2.4311871
-6.0212708e-07
-1.2790177e-11
2.4311872
7.4781787e-08
-6.9757286e-11
2.4311872
4.8531146e-07
-6.907684e-12
-1.9073978e-07
2.0330449e-11
2.5858786
-6.3805078e-07
-2.1630264e-12
2.5858787
-3.9895061e-08
-6.5199069e-11
2.5858786
5.2371942e-07
-4.3990178e-12
-7.3653089e-08
1.6310768e-11
2.7466728
-6.6715855e-07
8.5927241e-12
2.746673
-1.6225034e-07
-6.0271797e-11
2.7466729
5.5537437e-07
-2.8515702e-12
5.1169977e-08
1.1508088e-11
2.9135432
-6.8844629e-07
1.9339787e-11
2.9135433
-2.910186e-07
-5.5023965e-11
2.9135433
5.7930969e-07
-1.4087145e-12
1.8250065e-07
5.892393e-12
3.0864436
-7.0106901e-07
2.995578e-11
3.0864437
-4.2474734e-07
-4.9501911e-11
3.0864437
5.9471571e-07
-2.1600173e-13
3.189209e-07
-5.4732536e-13
3.2653081
-7.0437846e-07
4.0324927e-11
3.2653082
-5.6179733e-07
-4.3749776e-11
3.2653082
6.0097659e-07
7.006644e-13
4.5882319e-07
-7.8058605e-12
3.45005
-6.9795862e-07
5.0337501e-11
3.4500502
-7.0033983e-07
-3.7810091e-11
3.4500502
5.9770518e-07
1.325723e-12
6.0040729e-07
-1.5863196e-11
3.6405616
-6.8165816e-07
5.9888912e-11
3.6405618
-8.383495e-07
-3.1724504e-11
3.6405618
5.8477504e-07
1.6507041e-12
7.4167297e-07
-2.4764431e-11
3.8367137
-6.5561915e-07
6.88777e-11
3.8367138
-9.7359204e-07
-2.5535445e-11
3.8367139
5.6234873e-07
1.6711092e-12
8.8040685e-07
-3.427693e-11
4.0383554
-6.2030082e-07
7.7205245e-11
4.0383555
-1.1036049e-06
-1.9287387e-11
4.0383556
5.3090128e-07
1.3860453e-12
1.0141634e-06
-4.445678e-11
4.2453143
-5.7649688e-07
8.477414e-11
4.2453144
-1.2256696e-06
-1.3028116e-11
4.2453145
4.9123729e-07
7.9724731e-13
1.1402371e-06
-5.5229966e-11
4.4573965
-5.2534449e-07
9.1486508e-11
4.4573966
-1.336775e-06
-6.8102921e-12
4.4573966
4.4449966e-07
-9.0448122e-14
1.2556251e-06
-6.6508889e-11
4.6743869
-4.6832227e-07
9.7243299e-11
4.674387
-1.4335708e-06
-6.9191567e-13
4.6743871
3.9216728e-07
-1.2681084e-12
1.3569806e-06
-7.8189576e-11
4.8960499
-4.0723342e-07
1.0194432e-10
4.89605
-1.5123141e-06
5.2592551e-12
4.8960501
3.3603815e-07
-2.7195186e-12
1.4405598e-06
-9.0149141e-11
5.1221298
-3.4416927e-07
1.0549054e-10
5.1221299
-1.5688159e-06
1.0972615e-11
5.1221299
2.7819266e-07
-4.4153935e-12
1.5021677e-06
-1.022419e-10
5.3523516
-2.8144599e-07
1.0778724e-10
5.3523516
-1.5984019e-06
1.6371375e-11
5.3523517
2.2093043e-07
-6.3113852e-12
1.5371193e-06
-1.1429576e-10
5.5864219
-2.2150565e-07
1.0875155e-10
5.5864219
-1.5959193e-06
2.1383362e-11
5.5864219
1.6667171e-07
-8.3455626e-12
1.540247e-06
-1.2610905e-10
5.8240301
-1.6676956e-07
1.0832391e-10
5.8240301
-1.5558488e-06
2.5909299e-11
5.8240302
1.1781149e-07
-1.0404483e-11
1.506013e-06
-1.3744842e-10
6.0648497
-1.1943035e-07
1.0648673e-10
6.0648497
-1.4726302e-06
2.9878857e-11
6.0648497
7.6513086e-08
-1.2353636e-11
1.428837e-06
-1.480447e-10
6.3085392
-8.116988e-08
1.0329065e-10
6.3085391
-1.3413925e-06
3.3211929e-11
6.3085391
4.4428636e-08
-1.4006951e-11
1.3038282e-06
-1.5759037e-10
6.5547439
-5.2802344e-08
9.8884975e-11
6.5547437
-1.1593978e-06
3.5833985e-11
6.5547438
2.2345726e-08
-1.5156913e-11
1.1282318e-06
-1.6574606e-10
6.8030974
-3.3878712e-08
9.355636e-11
6.8030971
-9.2863323e-07
3.7684015e-11
6.8030971
9.7968949e-09
-1.5571777e-11
9.0402415e-07
-1.721082e-10
7.0532229
-2.2376482e-08
8.7843992e-11
7.0532227
-6.5993567e-07
3.8696549e-11
7.0532227
4.7566114e-09
-1.4866972e-11
6.4203534e-07
-1.7591427e-10
7.3047356
-1.475792e-08
8.2578187e-11
7.3047354
-3.7845567e-07
3.8439646e-11
7.3047354
3.7078107e-09
-1.2643678e-11
3.6740646e-07
-1.7565574e-10
7.5572439
-7.0382039e-09
7.771726e-11
7.5572437
-1.2969582e-07
3.4080637e-11
7.5572437
2.6516478e-09
-9.9018254e-12
1.2558881e-07
-1.7064088e-10
7.8103515
6.2393177e-11
7.8103513
1.7422005e-11
7.8103513
-1.0371214e-11
-1.4516613e-10
-0.048762186
2.4123947e-07
4.7115419e-09
-0.048762455
2.5460189e-07
-2.2330983e-09
-0.048762221
-2.555771e-07
-2.3882909e-09
-2.7341959e-07
-4.6319721e-09
0.19784548
6.4479155e-07
1.9618734e-08
0.19784495
7.5959727e-07
6.3003389e-10
0.19784541
-7.048735e-07
-1.3526386e-09
-8.0812215e-07
-2.4401604e-09
0.29094246
9.8148649e-07
1.742679e-08
0.29094202
1.1977094e-06
2.1750605e-09
0.29094239
-1.0778378e-06
-1.0804244e-09
-1.2780925e-06
-1.9050692e-09
0.3203097
1.1395579e-06
1.354913e-08
0.32030946
1.4282654e-06
2.4141082e-09
0.32030965
-1.2629322e-06
-9.6578475e-10
-1.5364028e-06
-1.9139827e-09
0.33032931
1.1122569e-06
1.0045304e-08
0.33032929
1.4366757e-06
2.3206891e-09
0.33032929
-1.2554892e-06
-1.1248643e-09
-1.5674568e-06
-1.9773994e-09
0.33822017
1.0526473e-06
7.3502421e-09
0.33822021
1.3847215e-06
1.9801297e-09
0.33822017
-1.2110059e-06
-8.743476e-10
-1.5335624e-06
-1.8533069e-09
0.34877478
1.0407921e-06
5.3419512e-09
0.34877477
1.3757504e-06
1.6214457e-09
0.34877478
-1.2107046e-06
-5.8886892e-10
-1.5385363e-06
-1.6389051e-09
0.3624277
1.0689431e-06
3.8720313e-09
0.36242765
1.4156871e-06
1.3250519e-09
0.36242769
-1.2473271e-06
-3.7851493e-10
-1.5888019e-06
-1.3974426e-09
0.37884978
1.0936129e-06
2.8057034e-09
0.37884973
1.4618968e-06
1.0883207e-09
0.37884976
-1.2777116e-06
-2.3841414e-10
-1.6421604e-06
-1.1668215e-09
0.39802081
1.0790857e-06
2.0365124e-09
0.39802079
1.4730075e-06
8.9724523e-10
0.39802078
-1.2664884e-06
-1.5016236e-10
-1.6576698e-06
-9.6364873e-10
0.42027735
1.0134046e-06
1.4846054e-09
0.42027739
1.4312413e-06
7.418837e-10
0.42027732
-1.202103e-06
-9.4593365e-11
-1.6180357e-06
-7.9113494e-10
0.44610816
9.0482619e-07
1.0907163e-09
0.44610825
1.3419828e-06
6.0941914e-10
0.44610814
-1.0932282e-06
-5.7166543e-11
-1.5291236e-06
-6.4667162e-10
0.47598186
7.7141276e-07
8.1035828e-10
0.47598197
1.2235473e-06
4.9612511e-10
0.47598184
-9.5829103e-07
-3.2341212e-11
-1.4096866e-06
-5.2604471e-10
0.51026453
6.3183603e-07
6.1032029e-10
0.51026466
1.0967825e-06
3.9999876e-10
0.51026452
-8.1626396e-07
-2.0037204e-11
-1.2809211e-06
-4.2534988e-10
0.54920654
5.0020538e-07
4.6572492e-10
0.54920666
9.7849721e-07
3.2196986e-10
0.54920652
-6.8153789e-07
-1.3509593e-12
-1.1599064e-06
-3.4151683e-10
0.59296434
3.845812e-07
3.5956706e-10
0.59296444
8.790136e-07
2.6109323e-10
0.59296432
-5.6236319e-07
1.7903757e-11
-1.0571739e-06
-2.72102e-10
0.64163232
2.8772521e-07
2.8222524e-10
0.6416324
8.0250295e-07
2.1486184e-10
0.6416323
-4.616536e-07
2.9796389e-11
-9.7705143e-07
-2.1508919e-10
0.69527125
2.0872494e-07
2.264268e-10
0.6952713
7.4857358e-07
1.8033616e-10
0.69527122
-3.7859819e-07
3.413848e-11
-9.1926334e-07
-1.6880209e-10
0.75392884
1.446256e-07
1.864414e-10
0.75392888
7.1405409e-07
1.5686237e-10
0.75392881
-3.103222e-07
3.5137024e-11
-8.8073154e-07
-1.3179632e-10
0.81765254
9.1684183e-08
1.5793547e-10
0.81765256
6.9446897e-07
1.3913501e-10
0.81765251
-2.5315536e-07
3.4498925e-11
-8.5705288e-07
-1.0275883e-10
0.88649613
4.6180132e-08
1.3757118e-10
0.88649614
6.8503253e-07
1.2607727e-10
0.88649609
-2.0344225e-07
3.3508013e-11
-8.4350486e-07
-8.0464637e-11
0.9605223
4.8570073e-09
1.2284133e-10
0.9605223
6.8123092e-07
1.1672417e-10
0.96052226
-1.5798329e-07
3.260752e-11
-8.3562978e-07
-6.3776782e-11
1.0398028
-3.4890118e-08
1.1185985e-10
1.0398028
6.7910055e-07
1.1008676e-10
1.0398027
-1.1422048e-07
3.1372726e-11
-8.2951325e-07
-5.1660445e-11
1.1244169
-7.4979907e-08
1.0322258e-10
1.1244169
6.7531661e-07
1.0534145e-10
1.1244169
-7.0272123e-08
2.989914e-11
-8.2187197e-07
-4.3168288e-11
1.21445
-1.1668936e-07
9.5939475e-11
1.2144501
6.6717858e-07
1.0184018e-10
1.21445
-2.4887887e-08
2.8223949e-11
-8.1003832e-07
-3.74618e-11
1.3099908
-1.6073189e-07
8.9308033e-11
1.3099908
6.5255005e-07
9.9081886e-11
1.3099907
2.2629535e-08
2.6337467e-11
-7.9189916e-07
-3.3811519e-11
1.411129
-2.0734318e-07
8.2796094e-11
1.4111291
6.2978587e-07
9.6687104e-11
1.411129
7.2510137e-08
2.427187e-11
-7.6582242e-07
-3.1596292e-11
1.5179536
-2.5636318e-07
7.6033821e-11
1.5179536
5.976634e-07
9.4376917e-11
1.5179536
1.2459797e-07
2.2126763e-11
-7.3058842e-07
-3.0295412e-11
1.63055
-3.0730975e-07
6.8788384e-11
1.63055
5.5532484e-07
9.1954472e-11
1.63055
1.7842359e-07
1.9980877e-11
-6.8533265e-07
-2.9476482e-11
1.7489982
-3.5944384e-07
6.0937526e-11
1.7489982
5.0223163e-07
8.9286649e-11
1.7489982
2.3326863e-07
1.7759607e-11
-6.2950095e-07
-2.8795163e-11
1.8733706
-4.1182745e-07
5.244403e-11
1.8733707
4.3812972e-07
8.6292271e-11
1.8733706
2.8822201e-07
1.5477358e-11
-5.6281599e-07
-2.7976481e-11
2.0037305
-4.633763e-07
4.3333575e-11
2.0037306
3.6302334e-07
8.2930058e-11
2.0037305
3.4223111e-07
1.316883e-11
-4.8525249e-07
-2.6805877e-11
2.1401297
-5.1290867e-07
3.3672563e-11
2.1401297
2.7715524e-07
7.9187385e-11
2.1401297
3.9414928e-07
1.088198e-11
-3.9701888e-07
-2.5118106e-11
2.282607
-5.5919176e-07
2.3521047e-11
2.2826071
1.8099154e-07
7.5070797e-11
2.2826071
4.4278089e-07
8.6677808e-12
-2.9854362e-07
-2.2788664e-11
2.4311871
-6.0098543e-07
1.2598562e-11
2.4311872
7.5209807e-08
7.0597931e-11
2.4311872
4.8692474e-07
6.559163e-12
-1.9046481e-07
-1.9728209e-11
2.5858786
-6.370887e-07
2.0434304e-12
2.5858787
-3.9310208e-08
6.579145e-11
2.5858787
5.2541688e-07
4.3625247e-12
-7.3622205e-08
-1.5878626e-11
2.7466728
-6.6637794e-07
-8.662065e-12
2.746673
-1.6149376e-07
6.0681278e-11
2.7466729
5.5716941e-07
2.7693082e-12
5.0948818e-08
-1.1201936e-11
2.9135432
-6.8784928e-07
-1.9374762e-11
2.9135433
-2.9007626e-07
5.5301017e-11
2.9135433
5.8121359e-07
1.3648324e-12
1.820215e-07
-5.6784205e-12
3.0864436
-7.0065794e-07
-2.9968383e-11
3.0864437
-4.2360628e-07
4.9684919e-11
3.0864437
5.96737e-07
1.9744265e-13
3.1817989e-07
6.9475014e-13
3.2653081
-7.0415583e-07
-4.0323821e-11
3.2653082
-5.6044604e-07
4.3867274e-11
3.2653082
6.0312086e-07
-7.0344354e-13
4.5781857e-07
7.9060005e-12
3.45005
-6.9792685e-07
-5.032877e-11
3.4500502
-6.9876864e-07
3.7882809e-11
3.4500502
5.9997489e-07
-1.3194368e-12
5.9913941e-07
1.5930397e-11
3.6405616
-6.8181926e-07
-5.9876674e-11
3.6405618
-8.3655115e-07
3.1767447e-11
3.6405618
5.8716933e-07
-1.6399234e-12
7.4014406e-07
2.4811122e-11
3.8367137
-6.5597431e-07
-6.8864649e-11
3.8367138
-9.7156225e-07
2.5559145e-11
3.8367139
5.648633e-07
-1.6587716e-12
8.7862177e-07
3.4304844e-11
4.0383554
-6.2084988e-07
-7.7192995e-11
4.0383555
-1.1013431e-06
1.9299038e-11
4.0383556
5.3352817e-07
-1.3738797e-12
1.0121294e-06
4.4473116e-11
4.2453143
-5.772377e-07
-8.4763442e-11
4.2453144
-1.2231796e-06
1.3032605e-11
4.2453144
4.9396455e-07
-7.862731e-13
1.1379641e-06
5.5239429e-11
4.4573965
-5.2627227e-07
-9.147756e-11
4.4573966
-1.3340661e-06
6.8108102e-12
4.4573966
4.4731094e-07
9.9851701e-14
1.2531261e-06
6.6514297e-11
4.6743869
-4.694286e-07
-9.7236071e-11
4.674387
-1.4306586e-06
6.9053105e-13
4.6743871
3.9504129e-07
1.2757034e-12
1.3542725e-06
7.8192783e-11
4.8960499
-4.0850535e-07
-1.0193856e-10
4.89605
-1.5092217e-06
-5.2615097e-12
4.8960501
3.3894788e-07
2.7254984e-12
1.437664e-06
9.0151197e-11
5.1221298
-3.455881e-07
-1.0548609e-10
5.1221299
-1.5655753e-06
-1.0975172e-11
5.1221299
2.8110449e-07
4.419965e-12
1.4991113e-06
1.0224348e-10
5.3523516
-2.8298609e-07
-1.0778365e-10
5.3523516
-1.5950556e-06
-1.6374074e-11
5.3523516
2.2380306e-07
6.3148263e-12
1.5339366e-06
1.1429703e-10
5.5864219
-2.2313317e-07
-1.0874868e-10
5.5864219
-1.5925223e-06
-2.1383898e-11
5.5864219
1.6945497e-07
8.3486982e-12
1.5369813e-06
1.2611018e-10
5.8240301
-1.6844143e-07
-1.0832171e-10
5.8240301
-1.5524714e-06
-2.5909901e-11
5.8240301
1.204454e-07
1.0406742e-11
1.5027194e-06
1.3744934e-10
6.0648497
-1.210939e-07
-1.0648497e-10
6.0648496
-1.4693611e-06
-2.9879343e-11
6.0648497
7.8927563e-08
1.2355216e-11
1.4255848e-06
1.4804518e-10
6.3085392
-8.2763988e-08
-1.0328916e-10
6.3085391
-1.3383427e-06
-3.3212416e-11
6.3085391
4.6544521e-08
1.4008109e-11
1.3007049e-06
1.5759048e-10
6.5547439
-5.4261598e-08
-9.8883484e-11
6.5547437
-1.1567036e-06
-3.5834568e-11
6.5547437
2.4078488e-08
1.515774e-11
1.1253463e-06
1.6574584e-10
6.8030973
-3.514291e-08
-9.3554321e-11
6.8030971
-9.2645409e-07
-3.7684767e-11
6.8030971
1.1064634e-08
1.5572585e-11
9.0150657e-07
1.7210765e-10
7.0532229
-2.3407561e-08
-8.7841622e-11
7.0532226
-6.5843713e-07
-3.8697448e-11
7.0532226
5.4954741e-09
1.4867836e-11
6.4002581e-07
1.7591344e-10
7.3047356
-1.5563549e-08
-8.2575915e-11
7.3047353
-3.7775425e-07
-3.8440611e-11
7.3047353
3.8939978e-09
1.2644409e-11
3.6601127e-07
1.7565492e-10
7.5572439
-7.683548e-09
-7.7715713e-11
7.5572437
-1.2978746e-07
-3.4082305e-11
7.5572437
2.33702e-09
9.902204e-12
1.2482731e-07
1.7064051e-10
7.8103515
-6.2392821e-11
7.8103513
-1.7422532e-11
7.8103513
1.0371117e-11
1.4516634e-10
-0.048762237
2.2526517e-07
-0.048762507
2.5067559e-07
-0.04876228
-2.4532151e-07
-2.6872012e-07
0.19784534
6.3557442e-07
0.19784482
7.5533596e-07
0.19784525
-6.8082475e-07
-7.8710321e-07
0.2909423
9.8034932e-07
0.29094187
1.1969242e-06
0.29094222
-1.0506261e-06
-1.2487143e-06
0.32030956
1.1330533e-06
0.32030934
1.4217854e-06
0.3203095
-1.2278556e-06
-1.4968505e-06
0.33032922
1.1028252e-06
0.33032921
1.4260823e-06
0.33032919
-1.2200852e-06
-1.5244648e-06
0.33822013
1.0445783e-06
0.33822017
1.3745096e-06
0.33822013
-1.1810275e-06
-1.4944943e-06
0.34877476
1.0355572e-06
0.34877476
1.3681914e-06
0.34877476
-1.187627e-06
-1.5070063e-06
0.36242768
1.066008e-06
0.36242764
1.4109497e-06
0.36242767
-1.2301704e-06
-1.5652052e-06
0.37884975
1.0918386e-06
0.3788497
1.4591269e-06
0.37884973
-1.2648147e-06
-1.6252671e-06
0.39802077
1.077569e-06
0.39802075
1.4712142e-06
0.39802074
-1.2564876e-06
-1.6458804e-06
0.4202773
1.0116742e-06
0.42027735
1.4297312e-06
0.42027728
-1.194167e-06
-1.6099766e-06
0.44610812
9.0276446e-07
0.44610821
1.3404131e-06
0.4461081
-1.0869325e-06
-1.5237884e-06
0.47598182
7.6906358e-07
0.47598194
1.2218366e-06
0.4759818
-9.5344204e-07
-1.40638e-06
0.5102645
6.2927295e-07
0.51026463
1.0949786e-06
0.51026449
-8.1276122e-07
-1.2791583e-06
0.54920651
4.9749429e-07
0.54920664
9.7669264e-07
0.5492065
-6.7923643e-07
-1.1593286e-06
0.59296432
3.8178468e-07
0.59296442
8.773071e-07
0.59296431
-5.6109068e-07
-1.0574984e-06
0.64163231
2.8487527e-07
0.64163239
8.0097916e-07
0.64163228
-4.6121711e-07
-9.7804681e-07
0.69527123
2.0583781e-07
0.69527129
7.4729149e-07
0.6952712
-3.7881758e-07
-9.2073893e-07
0.75392882
1.4171084e-07
0.75392886
7.1302954e-07
0.75392879
-3.1103807e-07
-8.8253276e-07
0.81765252
8.8752648e-08
0.81765255
6.9369017e-07
0.81765249
-2.5422789e-07
-8.5905747e-07
0.88649611
4.3247393e-08
0.88649612
6.8448287e-07
0.88649607
-2.0475657e-07
-8.4561902e-07
0.96052228
1.9432713e-09
0.96052228
6.8088303e-07
0.96052224
-1.5945637e-07
-8.3778349e-07
1.0398027
-3.7761652e-08
1.0398027
6.7892148e-07
1.0398027
-1.1578114e-07
-8.3165488e-07
1.1244169
-7.7785071e-08
1.1244169
6.752711e-07
1.1244169
-7.1867814e-08
-8.2396355e-07
1.21445
-1.194048e-07
1.21445
6.6723139e-07
1.21445
-2.6482347e-08
-8.1205138e-07
1.3099908
-1.6333633e-07
1.3099908
6.5266744e-07
1.3099907
2.1058528e-08
-7.938113e-07
1.411129
-2.0981836e-07
1.411129
6.2993642e-07
1.411129
7.0973187e-08
-7.6761483e-07
1.5179536
-2.5869423e-07
1.5179536
5.9781839e-07
1.5179536
1.2309645e-07
-7.3224419e-07
1.63055
-3.0948524e-07
1.63055
5.5545821e-07
1.63055
1.7695205e-07
-6.8683569e-07
1.7489981
-3.6145547e-07
1.7489982
5.0231978e-07
1.7489981
2.3181611e-07
-6.3083563e-07
1.8733706
-4.136695e-07
1.8733707
4.381511e-07
1.8733706
2.8677366e-07
-5.6396703e-07
2.0037305
-4.6504497e-07
2.0037306
3.6295809e-07
2.0037305
3.4076967e-07
-4.8620519e-07
2.1401296
-5.1440149e-07
2.1401297
2.7698481e-07
2.1401297
3.9265635e-07
-3.977594e-07
2.282607
-5.6050707e-07
2.2826071
1.8069834e-07
2.2826071
4.4123803e-07