/*--------------------------------*- C++ -*----------------------------------*\
| =========                 |                                                 |
| \\      /  F ield         | OpenFOAM: The Open Source CFD Toolbox           |
|  \\    /   O peration     | Version:  3.0.x                                 |
|   \\  /    A nd           | Web:      www.OpenFOAM.org                      |
|    \\/     M anipulation  |                                                 |
\*---------------------------------------------------------------------------*/
FoamFile
{
    version     2.0;
    format      ascii;
    class       volScalarField;
    location    "475";
    object      sigmayz;
}
// * * * * * * * * * * * * * * * * * * * * * * * * * * * * * * * * * * * * * //

dimensions      [0 2 -2 0 0 0 0];

internalField   nonuniform List<scalar> 
960
(
-2.3579643e-11
-2.0600336e-11
-4.3037167e-11
-7.9811051e-12
-1.4965019e-12
-1.2849675e-11
-9.6464987e-12
-1.4040325e-11
-2.2480951e-12
-4.6876799e-12
-3.6878071e-13
-7.7106897e-12
-1.4949712e-12
-7.2669848e-13
4.3050377e-12
-3.9660657e-12
1.2785242e-12
2.3125067e-12
7.9409319e-12
-1.0951395e-12
3.8002116e-12
4.9406254e-12
1.0492719e-11
1.4867568e-12
5.6248892e-12
6.8172597e-12
1.1663479e-11
3.5253618e-12
6.7474025e-12
7.6509978e-12
1.1714096e-11
4.8570978e-12
7.133889e-12
7.6531563e-12
1.103721e-11
5.5043429e-12
6.8483586e-12
7.0844349e-12
9.9339371e-12
5.5773586e-12
6.0750712e-12
6.1554579e-12
8.6231168e-12
5.2409378e-12
5.0639693e-12
5.1009197e-12
7.2619511e-12
4.6716881e-12
4.0625034e-12
4.1226545e-12
5.9392033e-12
4.0105618e-12
3.2707682e-12
3.31854e-12
4.693846e-12
3.3531542e-12
2.7192326e-12
2.6770253e-12
3.5826938e-12
2.7541527e-12
2.2548657e-12
2.1503641e-12
2.6350227e-12
2.2328936e-12
1.7905579e-12
1.7059219e-12
1.8677349e-12
1.7924549e-12
1.3334892e-12
1.3485904e-12
1.2995862e-12
1.4301904e-12
9.2679796e-13
1.0893762e-12
8.8687293e-13
1.138114e-12
6.1855765e-13
8.9395133e-13
5.7513226e-13
9.0723644e-13
3.9181486e-13
7.2680019e-13
3.4837583e-13
7.2642348e-13
2.2826621e-13
5.8785172e-13
2.0484944e-13
5.8550179e-13
1.1427646e-13
4.7663233e-13
1.1046625e-13
4.7480091e-13
3.7979662e-14
3.869462e-13
4.0447744e-14
3.8671424e-13
-1.0412628e-14
3.1400391e-13
-5.2670463e-15
3.1542993e-13
-3.858013e-14
2.5472589e-13
-3.2338263e-14
2.5710517e-13
-5.2615464e-14
2.062638e-13
-4.6374676e-14
2.0903919e-13
-5.7081005e-14
1.6612904e-13
-5.1672845e-14
1.691816e-13
-5.5557596e-14
1.3306595e-13
-5.1270189e-14
1.3611303e-13
-5.0608594e-14
1.0579683e-13
-4.7239227e-14
1.0832462e-13
-4.3928505e-14
8.3385916e-14
-4.1294974e-14
8.5409431e-14
-3.6702114e-14
6.5066076e-14
-3.4699957e-14
6.6615622e-14
-2.9739338e-14
5.018846e-14
-2.8186077e-14
5.1337766e-14
-2.358097e-14
3.8216782e-14
-2.224713e-14
3.9022628e-14
-1.8311066e-14
2.8702713e-14
-1.7172447e-14
2.9243838e-14
-1.3760045e-14
2.1220024e-14
-1.3188124e-14
2.1549463e-14
-9.9594489e-15
1.5440349e-14
-9.8448053e-15
1.5643181e-14
-6.9729981e-15
1.1042586e-14
-6.9206388e-15
1.1159927e-14
-4.6822575e-15
7.7488981e-15
-4.6638335e-15
7.8050863e-15
-3.0264305e-15
5.3447236e-15
-3.0230818e-15
5.3395418e-15
-1.9410877e-15
3.6252389e-15
-1.8543605e-15
3.5688836e-15
-1.036793e-15
2.340324e-15
-1.0524282e-15
2.3268119e-15
-4.3493726e-16
1.4124087e-15
-5.2145106e-16
1.5597178e-15
-1.0199428e-16
9.5469377e-16
-2.0371495e-16
7.7128215e-16
-2.6391729e-17
4.2790136e-16
-4.378473e-18
5.8962571e-16
6.9157074e-17
1.3593558e-16
1.0062011e-16
3.1088055e-16
1.0318269e-16
6.1948454e-17
1.5909549e-16
2.4172525e-16
1.0528508e-16
1.9022872e-16
1.6220976e-16
3.4721858e-17
9.5842128e-17
6.4763566e-18
1.383645e-16
1.4998826e-17
6.8885082e-17
-4.2391689e-18
1.0984684e-16
7.4605318e-18
6.7632543e-17
-1.705062e-17
9.6115921e-17
5.9204084e-18
6.1895355e-17
-1.9221805e-16
6.7101275e-17
1.2936612e-17
3.2867025e-17
-2.0629713e-17
4.027589e-17
1.6905199e-17
1.6909303e-17
-1.7251802e-16
3.9081826e-17
1.5101904e-17
-1.0562522e-17
5.5347579e-18
2.3589561e-17
1.4414452e-17
-7.9684221e-18
1.0639162e-17
1.2260409e-17
1.3112425e-17
4.0846094e-18
8.4097931e-18
1.627217e-17
5.1384947e-18
1.8314307e-17
-5.5498813e-18
2.2452705e-17
-1.1051706e-17
3.1587148e-17
-3.4058289e-17
2.1392725e-17
-2.3026967e-17
3.8865052e-17
-5.0963711e-17
6.0072052e-18
-4.2849146e-18
-1.5001241e-09
-8.5258322e-11
-2.312504e-10
-5.5352646e-11
6.696988e-10
-2.9553364e-10
-1.916493e-10
-2.6824371e-10
1.7919224e-09
-2.4519849e-11
1.2481233e-11
-2.3054984e-11
1.5127089e-09
8.6171655e-11
9.6051336e-11
7.5066854e-11
1.2106185e-09
1.2519808e-10
1.1447322e-10
1.1080561e-10
8.9445729e-10
1.2989393e-10
1.0919945e-10
1.1699144e-10
6.3377832e-10
1.2153592e-10
9.6714634e-11
1.1106896e-10
4.4531009e-10
1.095711e-10
8.3101201e-11
1.0093829e-10
3.1453246e-10
9.6553404e-11
7.0424357e-11
8.9254757e-11
2.2372883e-10
8.3355575e-11
5.9183795e-11
7.7173568e-11
1.6031058e-10
7.06413e-11
4.9404958e-11
6.5473563e-11
1.157755e-10
5.8879327e-11
4.097691e-11
5.4662762e-11
8.4341108e-11
4.8349041e-11
3.3796715e-11
4.5022766e-11
6.1951183e-11
3.9165305e-11
2.7804051e-11
3.6659868e-11
4.5794919e-11
3.1357893e-11
2.2822325e-11
2.9553475e-11
3.4032981e-11
2.4868923e-11
1.8627534e-11
2.3613029e-11
2.542822e-11
1.960403e-11
1.5076943e-11
1.8714732e-11
1.9058541e-11
1.5460712e-11
1.2086371e-11
1.472102e-11
1.4312502e-11
1.2198723e-11
9.6202765e-12
1.1500406e-11
1.0783385e-11
9.5242846e-12
7.6444584e-12
8.9291775e-12
8.1428911e-12
7.3350046e-12
6.0963291e-12
6.8944739e-12
6.1573209e-12
5.6071418e-12
4.8495719e-12
5.2949443e-12
4.6596707e-12
4.261569e-12
3.8150786e-12
4.0450377e-12
3.5269821e-12
3.2210141e-12
2.9785384e-12
3.0743081e-12
2.668983e-12
2.4226258e-12
2.314018e-12
2.3255171e-12
2.0183691e-12
1.8148509e-12
1.7894195e-12
1.7514672e-12
1.5243072e-12
1.3550166e-12
1.3777852e-12
1.3141642e-12
1.1495819e-12
1.0091114e-12
1.0566041e-12
9.8289567e-13
8.6559073e-13
7.5023197e-13
8.0715731e-13
7.3361836e-13
6.5058462e-13
5.5720666e-13
6.1406789e-13
5.4656422e-13
4.8798121e-13
4.1368502e-13
4.65208e-13
4.0685265e-13
3.651977e-13
3.0724631e-13
3.5105615e-13
3.0288492e-13
2.727524e-13
2.2840105e-13
2.639208e-13
2.2565788e-13
2.0377955e-13
1.7008299e-13
1.9775234e-13
1.6838511e-13
1.5228242e-13
1.2692188e-13
1.4807406e-13
1.2588957e-13
1.1321569e-13
9.4937068e-14
1.1134144e-13
9.4338951e-14
8.3676099e-14
7.113688e-14
8.3403364e-14
7.0800196e-14
6.1557994e-14
5.33905e-14
6.1694463e-14
5.3206451e-14
4.5263667e-14
4.0099064e-14
4.5397856e-14
3.9989448e-14
3.3259959e-14
3.0159948e-14
3.3316664e-14
3.0090201e-14
2.4338758e-14
2.2669104e-14
2.4425646e-14
2.2673887e-14
1.7920448e-14
1.718194e-14
1.7876589e-14
1.7022683e-14
1.3199922e-14
1.2735413e-14
1.3063682e-14
1.2747489e-14
9.6224131e-15
9.6421601e-15
9.5579848e-15
9.6513586e-15
7.0335318e-15
7.2702571e-15
6.9946914e-15
7.2764416e-15
5.1845425e-15
5.3628389e-15
5.1288467e-15
5.3644858e-15
3.7987637e-15
4.0210761e-15
3.7626554e-15
4.0076476e-15
2.7805485e-15
3.0119677e-15
2.7656229e-15
2.9848337e-15
2.0650376e-15
2.1246636e-15
2.0357383e-15
2.2634726e-15
1.5154523e-15
1.6634828e-15
1.4993179e-15
1.6470101e-15
1.1166144e-15
1.1105218e-15
1.105156e-15
1.2674106e-15
8.3400508e-16
9.5208559e-16
8.2992606e-16
7.7491233e-16
6.1171926e-16
6.6559688e-16
6.0648324e-16
6.5209613e-16
4.505437e-16
4.0267159e-16
4.5123913e-16
5.5824838e-16
3.3869777e-16
3.2852753e-16
3.3314983e-16
3.2158756e-16
2.3100055e-16
2.7462226e-16
2.4547848e-16
1.0621382e-16
1.4213023e-16
7.5484867e-17
1.7790768e-16
7.6926811e-17
7.5450876e-17
1.2710421e-16
1.2130132e-16
1.1305922e-16
4.2168882e-17
1.3369555e-16
9.6549276e-17
1.0214626e-16
1.2347614e-16
2.2213533e-16
1.5410895e-16
1.788076e-16
2.3579643e-11
2.0600336e-11
4.3037167e-11
7.9811051e-12
1.4965019e-12
1.2849675e-11
9.6464987e-12
1.4040325e-11
2.2480951e-12
4.6876799e-12
3.6878071e-13
7.7106897e-12
1.4949712e-12
7.2669848e-13
-4.3050377e-12
3.9660657e-12
-1.2785242e-12
-2.3125067e-12
-7.9409319e-12
1.0951395e-12
-3.8002116e-12
-4.9406254e-12
-1.0492719e-11
-1.4867568e-12
-5.6248892e-12
-6.8172597e-12
-1.1663479e-11
-3.5253618e-12
-6.7474025e-12
-7.6509978e-12
-1.1714096e-11
-4.8570978e-12
-7.133889e-12
-7.6531563e-12
-1.103721e-11
-5.5043429e-12
-6.8483586e-12
-7.0844349e-12
-9.9339371e-12
-5.5773586e-12
-6.0750712e-12
-6.1554579e-12
-8.6231168e-12
-5.2409378e-12
-5.0639693e-12
-5.1009197e-12
-7.261951e-12
-4.6716881e-12
-4.0625034e-12
-4.1226545e-12
-5.9392033e-12
-4.0105618e-12
-3.2707682e-12
-3.31854e-12
-4.6938461e-12
-3.3531542e-12
-2.7192326e-12
-2.6770253e-12
-3.5826938e-12
-2.7541527e-12
-2.2548657e-12
-2.1503641e-12
-2.6350227e-12
-2.2328936e-12
-1.7905579e-12
-1.7059219e-12
-1.8677349e-12
-1.7924549e-12
-1.3334892e-12
-1.3485904e-12
-1.2995862e-12
-1.4301904e-12
-9.2679797e-13
-1.0893762e-12
-8.8687293e-13
-1.138114e-12
-6.1855765e-13
-8.9395133e-13
-5.7513226e-13
-9.0723644e-13
-3.9181486e-13
-7.2680019e-13
-3.4837583e-13
-7.2642348e-13
-2.2826622e-13
-5.8785172e-13
-2.0484944e-13
-5.8550179e-13
-1.1427646e-13
-4.7663233e-13
-1.1046625e-13
-4.7480091e-13
-3.7979662e-14
-3.869462e-13
-4.0447744e-14
-3.8671424e-13
1.0412628e-14
-3.1400391e-13
5.2670397e-15
-3.1542992e-13
3.858013e-14
-2.5472589e-13
3.2338257e-14
-2.5710518e-13
5.2615464e-14
-2.062638e-13
4.6374676e-14
-2.0903919e-13
5.7081005e-14
-1.6612903e-13
5.1672845e-14
-1.691816e-13
5.5557597e-14
-1.3306595e-13
5.127019e-14
-1.3611303e-13
5.0608595e-14
-1.0579684e-13
4.7239226e-14
-1.0832462e-13
4.3928505e-14
-8.3385916e-14
4.1294974e-14
-8.5409431e-14
3.6702113e-14
-6.5066076e-14
3.4699957e-14
-6.6615622e-14
2.9739338e-14
-5.018846e-14
2.8186077e-14
-5.1337766e-14
2.358097e-14
-3.8216782e-14
2.224713e-14
-3.9022628e-14
1.8311065e-14
-2.8702713e-14
1.7172447e-14
-2.9243838e-14
1.3760045e-14
-2.1220023e-14
1.3188124e-14
-2.1549463e-14
9.959449e-15
-1.5440349e-14
9.8448054e-15
-1.5643181e-14
6.972998e-15
-1.1042586e-14
6.9206387e-15
-1.1159927e-14
4.6822575e-15
-7.7488981e-15
4.6638334e-15
-7.8050862e-15
3.0264305e-15
-5.3447236e-15
3.0230817e-15
-5.3395419e-15
1.9410876e-15
-3.6252389e-15
1.8543606e-15
-3.5688837e-15
1.036793e-15
-2.3403241e-15
1.0524282e-15
-2.3268119e-15
4.3493725e-16
-1.4124087e-15
5.2145105e-16
-1.5597178e-15
1.0199426e-16
-9.5469379e-16
2.0371495e-16
-7.7128216e-16
2.6391715e-17
-4.2790136e-16
4.3784598e-18
-5.8962572e-16
-6.9157073e-17
-1.3593558e-16
-1.0062011e-16
-3.1088055e-16
-1.0318269e-16
-6.1948459e-17
-1.5909549e-16
-2.4172526e-16
-1.0528508e-16
-1.9022873e-16
-1.6220976e-16
-3.4721859e-17
-9.5842134e-17
-6.4763626e-18
-1.383645e-16
-1.4998825e-17
-6.8885088e-17
4.2391671e-18
-1.0984684e-16
-7.4605294e-18
-6.7632538e-17
1.7050628e-17
-9.6115921e-17
-5.9204077e-18
-6.1895349e-17
1.9221805e-16
-6.7101275e-17
-1.293661e-17
-3.2867022e-17
2.0629716e-17
-4.0275888e-17
-1.6905195e-17
-1.6909299e-17
1.7251802e-16
-3.9081824e-17
-1.5101901e-17
1.0562525e-17
-5.5347529e-18
-2.3589557e-17
-1.4414449e-17
7.9684254e-18
-1.0639159e-17
-1.2260405e-17
-1.3112421e-17
-4.0846054e-18
-8.409791e-18
-1.6272167e-17
-5.13849e-18
-1.8314303e-17
5.5498846e-18
-2.2452702e-17
1.105171e-17
-3.1587144e-17
3.4058293e-17
-2.1392722e-17
2.302697e-17
-3.8865049e-17
5.0963715e-17
-6.0072001e-18
4.2849181e-18
1.5001241e-09
8.5258322e-11
2.312504e-10
5.5352646e-11
-6.696988e-10
2.9553364e-10
1.916493e-10
2.6824371e-10
-1.7919224e-09
2.4519849e-11
-1.2481233e-11
2.3054984e-11
-1.5127089e-09
-8.6171655e-11
-9.6051336e-11
-7.5066854e-11
-1.2106185e-09
-1.2519808e-10
-1.1447322e-10
-1.1080561e-10
-8.9445729e-10
-1.2989393e-10
-1.0919945e-10
-1.1699144e-10
-6.3377832e-10
-1.2153592e-10
-9.6714634e-11
-1.1106896e-10
-4.4531009e-10
-1.095711e-10
-8.3101201e-11
-1.0093829e-10
-3.1453246e-10
-9.6553404e-11
-7.0424357e-11
-8.9254757e-11
-2.2372883e-10
-8.3355575e-11
-5.9183795e-11
-7.7173568e-11
-1.6031058e-10
-7.06413e-11
-4.9404958e-11
-6.5473563e-11
-1.157755e-10
-5.8879327e-11
-4.097691e-11
-5.4662762e-11
-8.4341108e-11
-4.8349041e-11
-3.3796715e-11
-4.5022766e-11
-6.1951183e-11
-3.9165305e-11
-2.7804051e-11
-3.6659868e-11
-4.5794919e-11
-3.1357893e-11
-2.2822325e-11
-2.9553475e-11
-3.4032981e-11
-2.4868923e-11
-1.8627534e-11
-2.3613029e-11
-2.542822e-11
-1.960403e-11
-1.5076943e-11
-1.8714732e-11
-1.9058541e-11
-1.5460712e-11
-1.2086371e-11
-1.472102e-11
-1.4312502e-11
-1.2198723e-11
-9.6202765e-12
-1.1500406e-11
-1.0783385e-11
-9.5242846e-12
-7.6444584e-12
-8.9291775e-12
-8.1428911e-12
-7.3350046e-12
-6.0963291e-12
-6.8944739e-12
-6.1573209e-12
-5.6071418e-12
-4.8495719e-12
-5.2949443e-12
-4.6596707e-12
-4.261569e-12
-3.8150786e-12
-4.0450377e-12
-3.5269821e-12
-3.2210141e-12
-2.9785384e-12
-3.0743081e-12
-2.668983e-12
-2.4226258e-12
-2.314018e-12
-2.3255171e-12
-2.0183691e-12
-1.8148509e-12
-1.7894195e-12
-1.7514672e-12
-1.5243072e-12
-1.3550166e-12
-1.3777852e-12
-1.3141642e-12
-1.1495819e-12
-1.0091114e-12
-1.0566041e-12
-9.8289567e-13
-8.6559073e-13
-7.5023197e-13
-8.0715731e-13
-7.3361836e-13
-6.5058462e-13
-5.5720666e-13
-6.1406789e-13
-5.4656422e-13
-4.8798121e-13
-4.1368502e-13
-4.6520801e-13
-4.0685265e-13
-3.651977e-13
-3.0724631e-13
-3.5105615e-13
-3.0288492e-13
-2.727524e-13
-2.2840105e-13
-2.639208e-13
-2.2565788e-13
-2.0377954e-13
-1.7008299e-13
-1.9775234e-13
-1.6838511e-13
-1.5228242e-13
-1.2692188e-13
-1.4807406e-13
-1.2588957e-13
-1.1321569e-13
-9.4937068e-14
-1.1134144e-13
-9.4338951e-14
-8.3676099e-14
-7.113688e-14
-8.3403364e-14
-7.0800196e-14
-6.1557994e-14
-5.33905e-14
-6.1694463e-14
-5.3206452e-14
-4.5263667e-14
-4.0099064e-14
-4.5397855e-14
-3.9989448e-14
-3.3259959e-14
-3.0159948e-14
-3.3316664e-14
-3.0090201e-14
-2.4338758e-14
-2.2669104e-14
-2.4425647e-14
-2.2673887e-14
-1.7920448e-14
-1.718194e-14
-1.7876589e-14
-1.7022683e-14
-1.3199922e-14
-1.2735413e-14
-1.3063682e-14
-1.2747489e-14
-9.6224131e-15
-9.6421601e-15
-9.5579848e-15
-9.6513586e-15
-7.0335318e-15
-7.2702571e-15
-6.9946914e-15
-7.2764417e-15
-5.1845426e-15
-5.3628389e-15
-5.1288467e-15
-5.3644858e-15
-3.7987638e-15
-4.0210761e-15
-3.7626554e-15
-4.0076476e-15
-2.7805485e-15
-3.0119677e-15
-2.7656229e-15
-2.9848338e-15
-2.0650376e-15
-2.1246636e-15
-2.0357383e-15
-2.2634726e-15
-1.5154522e-15
-1.6634828e-15
-1.4993178e-15
-1.6470101e-15
-1.1166144e-15
-1.1105218e-15
-1.105156e-15
-1.2674107e-15
-8.3400509e-16
-9.5208561e-16
-8.2992607e-16
-7.7491235e-16
-6.1171926e-16
-6.6559683e-16
-6.0648325e-16
-6.5209608e-16
-4.505437e-16
-4.0267158e-16
-4.5123912e-16
-5.5824838e-16
-3.3869777e-16
-3.2852752e-16
-3.3314983e-16
-3.2158756e-16
-2.3100055e-16
-2.7462225e-16
-2.4547848e-16
-1.0621382e-16
-1.4213022e-16
-7.548486e-17
-1.7790767e-16
-7.6926804e-17
-7.5450869e-17
-1.2710421e-16
-1.2130132e-16
-1.1305921e-16
-4.2168884e-17
-1.3369555e-16
-9.654927e-17
-1.0214625e-16
-1.2347613e-16
-2.2213533e-16
-1.5410894e-16
-1.788076e-16
)
;

boundaryField
{
    movingWall
    {
        type            calculated;
        value           nonuniform List<scalar> 
16
(
3.0613919e-17
2.1679701e-16
-3.0613916e-17
-2.1679701e-16
-5.2418516e-17
2.918439e-16
5.2418522e-17
-2.918439e-16
-7.5784669e-18
2.1998907e-16
7.578474e-18
-2.1998907e-16
1.537155e-17
2.4389907e-16
-1.5371547e-17
-2.4389906e-16
)
;
    }
    CPLReceiveMD
    {
        type            calculated;
        value           nonuniform List<scalar> 
16
(
-4.7308778e-11
-1.9320331e-09
4.7308778e-11
1.9320331e-09
-2.5231219e-11
3.1867536e-10
2.5231219e-11
-3.1867536e-10
-7.4245292e-11
-1.4482669e-10
7.4245292e-11
1.4482669e-10
-4.2309859e-14
3.414082e-10
4.2309833e-14
-3.414082e-10
)
;
    }
    streamwiseIn
    {
        type            cyclic;
    }
    streamwiseOut
    {
        type            cyclic;
    }
    front
    {
        type            cyclic;
    }
    back
    {
        type            cyclic;
    }
}


// ************************************************************************* //
