/*--------------------------------*- C++ -*----------------------------------*\
| =========                 |                                                 |
| \\      /  F ield         | OpenFOAM: The Open Source CFD Toolbox           |
|  \\    /   O peration     | Version:  3.0.x                                 |
|   \\  /    A nd           | Web:      www.OpenFOAM.org                      |
|    \\/     M anipulation  |                                                 |
\*---------------------------------------------------------------------------*/
FoamFile
{
    version     2.0;
    format      ascii;
    class       volScalarField;
    location    "475";
    object      sigmazz;
}
// * * * * * * * * * * * * * * * * * * * * * * * * * * * * * * * * * * * * * //

dimensions      [0 2 -2 0 0 0 0];

internalField   nonuniform List<scalar> 
960
(
6.6289811e-09
6.5725981e-11
3.8169874e-10
9.5902829e-10
1.3421556e-09
1.6894875e-09
-1.9556529e-09
-1.5894092e-09
-1.6437637e-09
6.3118516e-10
-1.1287171e-09
-6.5304077e-10
-1.3170408e-09
7.649651e-10
-1.0092801e-09
-7.5380713e-10
-7.7278156e-10
3.009545e-10
-6.7311106e-10
-2.7451312e-10
-4.8028336e-10
3.1059339e-10
-5.9864436e-10
-3.2017867e-10
-3.366662e-10
2.2174576e-10
-4.6368519e-10
-2.7093226e-10
-4.3459816e-10
1.0522795e-10
-1.5069481e-10
-1.8613559e-10
-3.2933084e-10
2.3519455e-11
-1.0520644e-10
-1.2757951e-10
-3.2686774e-10
-1.407164e-10
-5.6556033e-12
2.1532632e-11
-3.0224837e-10
-2.7630767e-10
3.9616006e-11
1.492384e-10
-4.177203e-10
-2.6541645e-10
2.0391027e-10
1.3641715e-10
-3.5952135e-10
-4.0063012e-10
1.8051291e-10
2.7407485e-10
-4.6402304e-10
-3.8461844e-10
3.1034336e-10
2.6331447e-10
-4.4174534e-10
-4.9391948e-10
3.0706956e-10
3.7937783e-10
-5.3824628e-10
-4.1600212e-10
4.1833376e-10
3.0882604e-10
-4.55818e-10
-5.0854678e-10
3.4763682e-10
4.0877922e-10
-4.7476025e-10
-4.8583091e-10
3.7609781e-10
3.9302757e-10
-4.5461538e-10
-5.3105294e-10
3.6395165e-10
4.4438678e-10
-4.9474533e-10
-6.2564479e-10
4.1099736e-10
5.4441346e-10
-4.8412245e-10
-6.539172e-10
4.0641874e-10
5.7777827e-10
-5.3986119e-10
-6.1956422e-10
4.6755603e-10
5.4827873e-10
-4.4892039e-10
-6.4122816e-10
3.8164839e-10
5.7456042e-10
-4.4262947e-10
-7.2776026e-10
3.801722e-10
6.6553108e-10
-4.1886905e-10
-6.6589492e-10
3.6100282e-10
6.0795726e-10
-4.9637931e-10
-5.7440798e-10
4.4285318e-10
5.2060557e-10
-4.598544e-10
-5.7106886e-10
4.1037786e-10
5.2120762e-10
-5.366826e-10
-7.7269597e-10
4.9091542e-10
7.2652632e-10
-3.9845674e-10
-5.1861809e-10
3.5600264e-10
4.7582241e-10
-3.8160571e-10
-1.4776104e-09
3.4201226e-10
1.4378016e-09
-3.7793165e-10
-2.1399222e-10
3.4069795e-10
1.7671878e-10
-3.8946241e-10
-1.1695986e-09
3.5405139e-10
1.1343531e-09
-4.1754698e-10
-1.0190714e-09
3.8339812e-10
9.8530454e-10
-4.6289375e-10
-8.7508426e-10
4.2943144e-10
8.4221903e-10
-5.2558535e-10
-7.4058749e-10
4.9223381e-10
7.0803469e-10
-6.0509349e-10
-6.184017e-10
5.7129812e-10
5.8557526e-10
-7.003125e-10
-1.6208094e-09
6.6554551e-10
1.5871386e-09
-8.095712e-10
-4.2178368e-10
7.7333219e-10
3.8672509e-10
1.789155e-10
-3.5261595e-10
-2.1709079e-10
3.1566501e-10
4.877824e-11
-1.4159098e-09
-8.9308541e-11
1.3766076e-09
-8.7177933e-11
-2.8562783e-10
4.3925901e-11
2.4356795e-10
-2.252573e-10
-2.9319202e-10
1.7897152e-10
2.480255e-10
-3.6136405e-10
-1.4415158e-09
3.1179166e-10
1.3929554e-09
-4.9107146e-10
-1.5146606e-09
4.3802242e-10
1.4624848e-09
4.9984783e-10
-5.1619373e-10
-5.564978e-10
4.6024756e-10
3.9706392e-10
-6.6931719e-10
-4.5737091e-10
6.0951625e-10
3.1489569e-10
-8.6919858e-10
-3.7884491e-10
8.0552871e-10
-8.5169455e-10
-1.175059e-11
7.8419213e-10
-5.5732722e-11
-8.7957834e-10
-3.2231171e-10
8.086869e-10
2.511415e-10
-8.7519369e-10
-6.9808263e-10
8.0115166e-10
6.2341861e-10
2.7275681e-10
-3.6189154e-11
-3.4964149e-10
-4.1716108e-11
3.4484971e-10
-5.6088748e-10
-4.2420786e-10
4.8004159e-10
4.474564e-10
-5.3396426e-11
-5.2887544e-10
-3.0062547e-11
-5.3610944e-10
-7.2239776e-10
4.5302571e-10
6.3664133e-10
-3.9889612e-10
-1.429189e-09
3.1442527e-10
1.3413887e-09
-2.6815239e-10
-1.0068829e-09
1.8247624e-10
9.1712626e-10
-1.6524676e-10
-4.475465e-10
7.8581008e-11
3.5554178e-10
-1.0956085e-10
-5.8921197e-10
2.2656828e-11
4.9503051e-10
-9.84243e-11
1.4803692e-10
1.4427282e-11
-2.355539e-10
-1.1536573e-10
-9.536969e-10
3.6768838e-11
8.7881442e-10
-1.2479798e-10
-2.188404e-10
5.7092608e-10
5.2142801e-10
1.5935345e-09
1.6206446e-09
-1.2995931e-09
-1.3830663e-09
8.6076534e-10
6.2347869e-10
-5.222648e-10
-3.5268634e-10
7.4800821e-10
6.7718796e-10
-4.2195904e-10
-3.5918317e-10
4.2651049e-10
3.9437672e-10
-1.09703e-10
-7.5350989e-11
4.5257095e-10
4.4697268e-10
-1.7590668e-10
-1.4513547e-10
3.6616674e-10
4.2738261e-10
-1.3497998e-10
-1.5984574e-10
1.4441589e-10
1.8948836e-10
4.1774741e-11
3.5191571e-11
9.2355853e-11
1.1042663e-10
5.0422712e-11
6.843497e-11
-1.4692141e-11
-5.1517937e-11
1.175733e-10
1.855081e-10
-1.8159305e-10
-1.9021264e-10
2.4984776e-10
2.8323077e-10
-2.4679209e-10
-1.8757016e-10
2.8620676e-10
2.4517218e-10
-2.3408701e-10
-3.3399291e-10
2.5021427e-10
3.6224203e-10
-2.6105915e-10
-3.299339e-10
2.5877902e-10
3.3465744e-10
-3.7392507e-10
-3.394839e-10
3.5721972e-10
3.25831e-10
-4.879224e-10
-4.9330819e-10
4.5993903e-10
4.6553099e-10
-3.0722401e-10
-4.8327884e-10
2.704541e-10
4.4476943e-10
-4.4643393e-10
-5.7830043e-10
4.0292073e-10
5.3187269e-10
-4.3335411e-10
-5.1749847e-10
3.8482338e-10
4.6564339e-10
-3.6795875e-10
-6.1554282e-10
3.1591181e-10
5.6033713e-10
-4.72449e-10
-6.4645001e-10
4.1826374e-10
5.8949149e-10
-5.3141772e-10
-6.1412958e-10
4.7632745e-10
5.567163e-10
-4.4300946e-10
-6.3725114e-10
3.8803659e-10
5.804728e-10
-4.3870889e-10
-6.1382956e-10
3.8466906e-10
5.5854703e-10
-4.1651084e-10
-6.6358704e-10
3.6406142e-10
6.1043367e-10
-4.9524115e-10
-6.8347791e-10
4.4487384e-10
6.3287607e-10
-4.596615e-10
-6.8038251e-10
4.1168679e-10
6.3256138e-10
-5.3721264e-10
-6.6021578e-10
4.9177075e-10
6.1522864e-10
-3.9952937e-10
-5.1712392e-10
3.5660459e-10
4.7487258e-10
-3.8307852e-10
-1.4760837e-09
3.4251471e-10
1.4363415e-09
-3.7969525e-10
-2.123884e-10
3.4121628e-10
1.74823e-10
-3.9143565e-10
-1.1678855e-09
3.5466662e-10
1.1320839e-09
-4.1967112e-10
-1.0172253e-09
3.8416156e-10
9.8271555e-10
-4.6512015e-10
-8.7308739e-10
4.3037065e-10
8.3935869e-10
-5.2788132e-10
-7.3842725e-10
4.9336147e-10
7.0494758e-10
-6.0745377e-10
-6.1607079e-10
5.7261094e-10
5.8230231e-10
-7.0273681e-10
-1.6183057e-09
6.6701954e-10
1.5837184e-09
-8.1205394e-10
-4.1911032e-10
7.749361e-10
3.8319532e-10
1.7637827e-10
-3.4978137e-10
-2.1538872e-10
3.1206199e-10
4.619028e-11
-1.412929e-09
-8.7544443e-11
1.3729656e-09
-1.1993721e-09
-2.825231e-10
1.1552722e-09
2.3991922e-10
-1.3374891e-09
-2.8999363e-10
1.2902971e-09
2.4440239e-10
-3.6405885e-10
-1.4382643e-09
3.1349037e-10
1.3893934e-09
-4.9376836e-10
-1.5114058e-09
4.3960477e-10
1.4590198e-09
-6.1238318e-10
-5.1299677e-10
5.5447399e-10
4.5691884e-10
-7.1510275e-10
-6.6625255e-10
6.533699e-10
6.0636785e-10
-7.9715552e-10
-8.6635447e-10
7.3159642e-10
8.0261331e-10
2.5555445e-10
-9.2307138e-12
-3.2486523e-10
-5.8349712e-11
-8.816289e-10
-3.2024007e-10
8.087192e-10
2.4890319e-10
-8.7688582e-10
-6.9660577e-10
8.0060664e-10
6.2165907e-10
2.7153836e-10
-3.5481785e-11
-3.5088637e-10
-4.2869558e-11
3.4423463e-10
-5.6116175e-10
-4.2629026e-10
4.7965547e-10
4.4757816e-10
-5.4905949e-11
-5.3194373e-10
-2.9482286e-11
-5.3513634e-10
-7.2545028e-10
4.4884286e-10
6.3844122e-10
-3.9700836e-10
-3.245939e-10
3.0908942e-10
2.3518503e-10
-2.6541135e-10
-1.0141521e-09
1.7601629e-10
9.2238658e-10
-1.6205987e-10
-4.5735902e-10
7.0904697e-11
3.6250574e-10
-1.0669963e-10
-6.0032728e-10
1.4036253e-11
5.028627e-10
-9.4313032e-11
1.3969127e-10
9.768586e-12
-2.2643181e-10
-1.0787942e-10
-9.5481109e-10
3.995502e-11
8.8991368e-10
1.6286843e-10
-3.3247575e-10
6.7654092e-10
5.4801149e-10
3.254413e-09
1.9714291e-09
-1.3507566e-09
-1.319781e-09
2.2044402e-09
9.3054516e-10
-3.8123886e-10
-1.3512848e-10
1.9566543e-09
1.1451459e-09
-5.4101282e-10
-3.9201252e-10
1.1345428e-09
6.1988087e-10
-9.0096107e-11
1.95273e-11
9.1174045e-10
5.9110889e-10
-1.4958557e-10
-6.498617e-11
6.0298209e-10
4.6795415e-10
-4.4325201e-11
-4.626323e-11
3.9183123e-10
3.1946823e-10
1.7495181e-11
1.1028574e-11
1.4853804e-10
9.7664313e-11
1.4737304e-10
1.5483072e-10
-1.5493968e-11
1.7468877e-11
2.2375949e-10
1.6862556e-10
-1.0855368e-10
-1.429161e-10
2.4920561e-10
2.7357934e-10
-1.9672202e-10
-1.5436281e-10
2.8568418e-10
2.401002e-10
-1.9814899e-10
-3.0923939e-10
2.4790055e-10
3.5949089e-10
-3.4524144e-10
-3.1022062e-10
3.6553461e-10
3.329318e-10
-3.5365329e-10
-4.3399156e-10
3.5212935e-10
4.35576e-10
-4.7257998e-10
-3.6823423e-10
4.5504717e-10
3.537927e-10
-4.0665163e-10
-4.7091972e-10
3.7742417e-10
4.4446515e-10
-4.3779325e-10
-4.5646509e-10
4.0009397e-10
4.2113042e-10
-4.267819e-10
-5.0812127e-10
3.8308564e-10
4.6635484e-10
-4.7378121e-10
-6.0770034e-10
4.2609306e-10
5.6146869e-10
-4.6830643e-10
-6.4000426e-10
4.1828464e-10
5.9093954e-10
-5.279191e-10
-6.0891005e-10
4.7691949e-10
5.5838155e-10
-4.3990142e-10
-6.3312225e-10
3.8902319e-10
5.8227802e-10
-4.3581918e-10
-7.2162296e-10
3.8592328e-10
6.7139954e-10
-4.1372912e-10
-6.6127008e-10
3.6545704e-10
6.1240017e-10
-4.9250253e-10
-5.7093672e-10
4.4628749e-10
5.2395659e-10
-4.5693314e-10
-5.6847117e-10
4.1301451e-10
5.237268e-10
-5.3448458e-10
-7.7075702e-10
4.9293169e-10
7.2841415e-10
-3.9680525e-10
-5.1717357e-10
3.5753919e-10
4.7723416e-10
-3.803667e-10
-1.4765353e-09
3.4317946e-10
1.4388561e-09
-3.7700354e-10
-2.1319243e-10
3.4158156e-10
1.7750524e-10
-3.8876843e-10
-1.1690036e-09
3.5471803e-10
1.1349395e-09
-4.1702971e-10
-1.0186286e-09
3.8389946e-10
9.857418e-10
-4.6250931e-10
-8.7475452e-10
4.2980688e-10
8.4254524e-10
-5.2529933e-10
-7.4034163e-10
4.9251321e-10
7.082783e-10
-6.0488039e-10
-6.1821808e-10
5.7150599e-10
5.8575743e-10
-7.0015408e-10
-1.620672e-09
6.6570123e-10
1.587275e-09
-8.0945425e-10
-4.2168077e-10
7.7344858e-10
3.8682746e-10
1.7900127e-10
-3.5253881e-10
-2.1700473e-10
3.1574186e-10
4.8841439e-11
-1.4158519e-09
-8.9245264e-11
1.3766651e-09
-8.7131672e-11
-2.8558471e-10
4.3972353e-11
2.4361129e-10
-2.2522369e-10
-2.9315923e-10
1.7900566e-10
2.4805821e-10
-3.6133904e-10
-1.4414911e-09
3.1181667e-10
1.3929796e-09
-4.9105285e-10
-1.5146426e-09
4.3804073e-10
1.4625027e-09
4.9986128e-10
-5.1617986e-10
-5.5648437e-10
4.6026128e-10
3.9707375e-10
-6.6930672e-10
-4.5736103e-10
6.0952656e-10
3.1490299e-10
-8.6919097e-10
-3.7883765e-10
8.0553615e-10
-8.5168925e-10
-1.1744594e-11
7.8419748e-10
-5.5727299e-11
-8.7957446e-10
-3.2230746e-10
8.0869084e-10
2.5114563e-10
-8.7519081e-10
-6.9807944e-10
8.0115457e-10
6.2342167e-10
2.7275887e-10
-3.6186892e-11
-3.4963935e-10
-4.1713509e-11
3.4485121e-10
-5.60886e-10
-4.2420627e-10
4.8004342e-10
4.4745753e-10
-5.3394772e-11
-5.2887423e-10
-3.0061863e-11
-5.3610867e-10
-7.2239673e-10
4.530266e-10
6.3664228e-10
-3.9889555e-10
-1.4291886e-09
3.1442596e-10
1.34139e-09
-2.6815193e-10
-1.0068821e-09
1.8247676e-10
9.17127e-10
-1.6524646e-10
-4.4754589e-10
7.8581401e-11
3.5554187e-10
-1.0956062e-10
-5.8921175e-10
2.2657118e-11
4.9503067e-10
-9.8424091e-11
1.4803723e-10
1.4427511e-11
-2.3555363e-10
-1.1536559e-10
-9.5369673e-10
3.6769002e-11
8.7881455e-10
-1.4233155e-10
-2.37242e-10
5.3599379e-10
5.1212771e-10
1.5771053e-09
1.6026222e-09
-1.3241686e-09
-1.3985287e-09
8.4591606e-10
6.0870558e-10
-5.414112e-10
-3.6503977e-10
7.3293033e-10
6.6081018e-10
-4.4790953e-10
-3.7029453e-10
4.1293349e-10
3.7896975e-10
-1.3511646e-10
-8.5528804e-11
4.3885078e-10
4.3170743e-10
-2.0062444e-10
-1.5584723e-10
3.5237474e-10
4.1167363e-10
-1.5900399e-10
-1.715479e-10
1.3090704e-10
1.7363395e-10
1.9303279e-11
2.2870263e-11
7.9383851e-11
9.5231746e-11
3.0265995e-11
5.6106007e-11
-2.6793846e-11
-6.547691e-11
1.0011835e-10
1.737299e-10
-1.9244249e-10
-2.0258125e-10
2.3518685e-10
2.7243782e-10
-2.5605055e-10
-1.9810868e-10
2.7421024e-10
2.3563363e-10
-2.415227e-10
-3.4265685e-10
2.4059472e-10
3.5405629e-10
-2.6668414e-10
-3.3691167e-10
2.51225e-10
3.277932e-10
-3.7812245e-10
-3.4509486e-10
3.5143891e-10
3.201692e-10
-4.9116502e-10
-4.9785313e-10
4.5564649e-10
4.6091074e-10
-3.0977771e-10
-4.869566e-10
2.674028e-10
4.4102892e-10
-4.4838584e-10
-5.8122777e-10
4.0085485e-10
5.288628e-10
-4.3473809e-10
-5.1980963e-10
3.8345385e-10
4.6323232e-10
-3.6885289e-10
-6.1740072e-10
3.1502734e-10
5.5841188e-10
-4.7298807e-10
-6.4796286e-10
4.1774967e-10
5.8795542e-10
-5.3170828e-10
-6.1534996e-10
4.7607537e-10
5.5548992e-10
-4.4313085e-10
-6.3822916e-10
3.8793318e-10
5.794924e-10
-4.3872076e-10
-6.1461344e-10
3.8465344e-10
5.5776174e-10
-4.1645654e-10
-6.6421381e-10
3.64107e-10
6.0980399e-10
-4.9515111e-10
-6.8397696e-10
4.4495393e-10
6.3237222e-10
-4.5955644e-10
-6.8077958e-10
4.1178177e-10
6.3215958e-10
-5.3710612e-10
-6.605307e-10
4.9186789e-10
6.1490993e-10
-3.994298e-10
-5.1737189e-10
3.5669651e-10
4.7462041e-10
-3.8299019e-10
-1.4762778e-09
3.4259727e-10
1.436143e-09
-3.7961985e-10
-2.1253921e-10
3.4128727e-10
1.7466876e-10
-3.9137344e-10
-1.1680017e-09
3.547256e-10
1.131965e-09
-4.1962146e-10
-1.017314e-09
3.8420915e-10
9.8262473e-10
-4.6508157e-10
-8.7315437e-10
4.304079e-10
8.3929011e-10
-5.2785184e-10
-7.3847724e-10
4.9338958e-10
7.048964e-10
-6.0743154e-10
-6.1610766e-10
5.7263177e-10
5.8226464e-10
-7.0272052e-10
-1.6183325e-09
6.670351e-10
1.5836911e-09
-8.1204235e-10
-4.1912947e-10
7.7494745e-10
3.831758e-10
1.763862e-10
-3.4979481e-10
-2.15381e-10
3.1204827e-10
4.6195193e-11
-1.4129382e-09
-8.7539436e-11
1.3729561e-09
-1.1993689e-09
-2.8252942e-10
1.1552753e-09
2.3991282e-10
-1.3374868e-09
-2.8999807e-10
1.2902989e-09
2.4439841e-10
-3.6405766e-10
-1.4382668e-09
3.1349127e-10
1.3893903e-09
-4.9376821e-10
-1.5114075e-09
4.3960511e-10
1.459018e-09
-6.1238337e-10
-5.1299821e-10
5.5447405e-10
4.5691813e-10
-7.1510284e-10
-6.6625297e-10
6.5336978e-10
6.0636726e-10
-7.971557e-10
-8.6635395e-10
7.3159623e-10
8.0261276e-10
2.5555426e-10
-9.2306266e-12
-3.2486551e-10
-5.835019e-11
-8.8162907e-10
-3.2024043e-10
8.0871895e-10
2.4890315e-10
-8.7688598e-10
-6.9660565e-10
8.0060646e-10
6.2165902e-10
2.7153825e-10
-3.5482112e-11
-3.5088653e-10
-4.2869586e-11
3.4423451e-10
-5.6116168e-10
-4.2629041e-10
4.7965544e-10
4.4757806e-10
-5.4905895e-11
-5.319438e-10
-2.9482297e-11
-5.3513644e-10
-7.2545024e-10
4.4884284e-10
6.3844121e-10
-3.9700847e-10
-3.2459342e-10
3.0908936e-10
2.3518504e-10
-2.6541143e-10
-1.014152e-09
1.7601626e-10
9.2238657e-10
-1.6205996e-10
-4.5735896e-10
7.090468e-11
3.6250575e-10
-1.0669973e-10
-6.0032721e-10
1.4036191e-11
5.0286271e-10
-9.4313079e-11
1.3969133e-10
9.7685452e-12
-2.2643179e-10
-1.0787937e-10
-9.5481106e-10
3.9954987e-11
8.8991368e-10
)
;

boundaryField
{
    movingWall
    {
        type            calculated;
        value           nonuniform List<scalar> 
16
(
-1.2946201e-10
-1.2023349e-10
-1.2946189e-10
-1.2023344e-10
-4.9448407e-10
-4.9114427e-10
-4.9448389e-10
-4.9114426e-10
5.3550148e-11
6.0336675e-11
5.3550312e-11
6.0336651e-11
4.2465623e-10
4.3663594e-10
4.2465635e-10
4.3663591e-10
)
;
    }
    CPLReceiveMD
    {
        type            calculated;
        value           nonuniform List<scalar> 
16
(
1.2087673e-08
6.0614909e-10
6.4538211e-10
5.9094451e-10
1.1191669e-09
5.7272411e-10
4.3897162e-10
5.5223685e-10
-2.3166378e-10
5.9854447e-11
9.0517243e-11
2.158429e-11
4.4403236e-10
-2.0803406e-10
-2.6814862e-10
-2.1518127e-10
)
;
    }
    streamwiseIn
    {
        type            cyclic;
    }
    streamwiseOut
    {
        type            cyclic;
    }
    front
    {
        type            cyclic;
    }
    back
    {
        type            cyclic;
    }
}


// ************************************************************************* //
