/*--------------------------------*- C++ -*----------------------------------*\
| =========                 |                                                 |
| \\      /  F ield         | OpenFOAM: The Open Source CFD Toolbox           |
|  \\    /   O peration     | Version:  3.0.x                                 |
|   \\  /    A nd           | Web:      www.OpenFOAM.org                      |
|    \\/     M anipulation  |                                                 |
\*---------------------------------------------------------------------------*/
FoamFile
{
    version     2.0;
    format      ascii;
    class       volScalarField;
    location    "475";
    object      sigmayy;
}
// * * * * * * * * * * * * * * * * * * * * * * * * * * * * * * * * * * * * * //

dimensions      [0 2 -2 0 0 0 0];

internalField   nonuniform List<scalar> 
960
(
-2.4520699e-09
1.2217858e-08
-1.2383248e-08
-1.4129823e-08
1.7719438e-08
2.0379823e-08
-1.8586092e-08
-2.0974399e-08
2.0228162e-08
1.9085625e-08
-1.6617397e-08
-1.9595899e-08
1.1629713e-08
1.0500395e-08
-8.519017e-09
-1.1070448e-08
2.5843367e-09
1.4758768e-09
-8.3896645e-10
-2.0135488e-09
-4.6804719e-11
-1.5002341e-09
1.3736406e-09
1.1086195e-09
1.1984892e-09
4.4903544e-11
-1.9990811e-10
-2.8852891e-10
2.1986333e-09
1.973613e-09
-1.4681818e-09
-2.0936301e-09
1.7509925e-09
2.1638775e-09
-1.2068725e-09
-2.1859608e-09
-1.8435339e-10
5.1786998e-10
6.0722418e-10
-4.6597682e-10
-2.5166387e-09
-1.8548734e-09
2.8598856e-09
1.9591294e-09
-4.5823484e-09
-3.8581426e-09
4.872129e-09
3.9965178e-09
-5.6733606e-09
-5.2392042e-09
5.9263172e-09
5.3974476e-09
-6.1126907e-09
-5.5937045e-09
6.3395734e-09
5.7615025e-09
-5.8116371e-09
-5.3667827e-09
6.019142e-09
5.5371677e-09
-5.2763715e-09
-4.5174038e-09
5.4685689e-09
4.6859066e-09
-4.4356395e-09
-3.6613605e-09
4.6152911e-09
3.8252303e-09
-3.7267896e-09
-2.7040728e-09
3.8958116e-09
2.8620583e-09
-3.0974185e-09
-1.9446252e-09
3.2569163e-09
2.0966934e-09
-2.6813296e-09
-1.4199902e-09
2.831992e-09
1.5661878e-09
-2.367465e-09
-1.0285712e-09
2.5099107e-09
1.168469e-09
-2.2542857e-09
-7.6286466e-10
2.3889482e-09
8.9605375e-10
-2.102006e-09
-7.1835477e-10
2.2289382e-09
8.446089e-10
-2.1136045e-09
-8.7725941e-10
2.2327106e-09
9.9639141e-10
-2.1603781e-09
-1.0003098e-09
2.2716907e-09
1.1121905e-09
-2.337658e-09
-1.1827716e-09
2.441357e-09
1.2873871e-09
-2.4102775e-09
-1.5219338e-09
2.5066937e-09
1.619423e-09
-2.5891634e-09
-2.1169966e-09
2.6787841e-09
2.207669e-09
-2.5325011e-09
-2.2920703e-09
2.6159698e-09
2.3764179e-09
-2.5660177e-09
-3.7026066e-09
2.6441248e-09
3.781296e-09
-2.5732263e-09
-2.9010442e-09
2.6468859e-09
2.9748979e-09
-2.5500602e-09
-4.3184236e-09
2.6202793e-09
4.3883963e-09
-2.4938127e-09
-4.6194124e-09
2.5616615e-09
4.6865583e-09
-2.4030607e-09
-4.9073379e-09
2.4696516e-09
4.9727776e-09
-2.2776337e-09
-5.1762949e-09
2.3440894e-09
5.2411825e-09
-2.1185848e-09
-5.4206392e-09
2.1859926e-09
5.4861284e-09
-1.9281225e-09
-6.7444838e-09
1.9975219e-09
6.8117024e-09
-1.7095873e-09
-5.8138395e-09
1.7819664e-09
5.8838643e-09
-3.5786725e-10
-5.9521634e-09
4.3414527e-10
6.0259959e-09
-9.7583055e-11
-7.1542474e-09
1.7859046e-10
7.2327998e-09
1.7433636e-10
-6.0861245e-09
-8.7871318e-11
6.1702052e-09
4.5050031e-10
-6.0709912e-09
-3.5795734e-10
6.161295e-09
7.227176e-10
-7.1030202e-09
-6.2359382e-10
7.2001192e-09
9.8213524e-10
-6.9567279e-09
-8.7605257e-10
7.0610631e-09
2.328979e-09
-5.6249792e-09
-2.2156904e-09
5.7368595e-09
2.5345483e-09
-5.3187308e-09
-2.4139427e-09
5.4383237e-09
2.6988858e-09
-4.9189668e-09
-2.5709936e-09
5.0463e-09
1.7033868e-09
-3.3051816e-09
-1.5683866e-09
3.4401433e-09
1.7591551e-09
-2.6840588e-09
-1.6173755e-09
2.8263955e-09
1.7503862e-09
-1.9325165e-09
-1.6023046e-09
2.0818418e-09
2.7831658e-09
7.2377243e-11
-2.6293982e-09
8.3431257e-11
2.6389803e-09
1.1217741e-09
-2.4802653e-09
-9.6008392e-10
2.4337671e-09
3.4354726e-09
-2.2709299e-09
-3.2685557e-09
1.0722186e-09
4.7734754e-09
-9.0605178e-10
-4.6019633e-09
7.9779203e-10
6.1870581e-09
-6.2885084e-10
-6.0114581e-09
5.363046e-10
8.671126e-09
-3.6495271e-10
-8.4916133e-09
3.3049343e-10
1.0881134e-08
-1.5716218e-10
-1.0697125e-08
2.1912163e-10
1.1164465e-08
-4.531378e-11
-1.0976102e-08
1.968485e-10
9.6899669e-09
-2.8854657e-11
-9.5149332e-09
2.3073141e-10
5.236074e-09
-7.3537729e-11
-5.0863092e-09
1.0979885e-08
1.2693287e-08
-1.1841822e-08
-1.3292564e-08
1.679691e-08
2.0072993e-08
-1.7349209e-08
-2.0527122e-08
1.4934634e-08
1.8741389e-08
-1.5573429e-08
-1.9255647e-08
7.1725668e-09
9.9802021e-09
-7.7852331e-09
-1.0586646e-08
-1.7287304e-10
1.2253359e-09
-4.2225649e-10
-1.8334594e-09
-1.8897938e-09
-1.5436982e-09
1.3722146e-09
9.6894928e-10
-5.3725378e-11
1.5832962e-10
-3.7676239e-10
-6.6662711e-10
1.3868778e-09
1.9637637e-09
-1.7318095e-09
-2.3892392e-09
1.1564062e-09
2.1199675e-09
-1.419089e-09
-2.4570366e-09
-6.2845745e-10
4.4479951e-10
4.4119094e-10
-6.9537555e-10
-2.9592187e-09
-1.9424124e-09
2.8372629e-09
1.7707589e-09
-4.8274182e-09
-3.9463069e-09
4.7597663e-09
3.8428377e-09
-5.8525605e-09
-5.3189423e-09
5.8287044e-09
5.2719495e-09
-6.1323812e-09
-5.6608468e-09
6.1431144e-09
5.6590663e-09
-5.9073861e-09
-5.3096209e-09
5.9452047e-09
5.3430897e-09
-5.3471474e-09
-4.6697037e-09
5.4061265e-09
4.7302007e-09
-4.3775779e-09
-3.6916376e-09
4.4530717e-09
3.7726194e-09
-3.766682e-09
-2.8362356e-09
3.8548843e-09
2.9322768e-09
-3.1273825e-09
-1.9595357e-09
3.2250758e-09
2.065813e-09
-2.592625e-09
-1.4308265e-09
2.6969842e-09
1.5433041e-09
-2.3837667e-09
-1.0363464e-09
2.4921699e-09
1.1519249e-09
-2.2659034e-09
-7.6828273e-10
2.3759777e-09
8.8444471e-10
-2.1098919e-09
-7.2217219e-10
2.2196531e-09
8.3680005e-10
-2.1185099e-09
-7.6912296e-10
2.2263708e-09
8.8054457e-10
-2.1629077e-09
-1.0025635e-09
2.2675829e-09
1.109552e-09
-2.3383077e-09
-1.2957208e-09
2.4388318e-09
1.397464e-09
-2.4094547e-09
-1.6348372e-09
2.5052164e-09
1.7309033e-09
-2.5872061e-09
-2.0080852e-09
2.6779292e-09
2.0983897e-09
-2.52969e-09
-2.2943063e-09
2.6154067e-09
2.3790638e-09
-2.5625781e-09
-3.7050969e-09
2.643599e-09
3.784776e-09
-2.5693326e-09
-2.9038307e-09
2.646207e-09
2.9791085e-09
-2.5458416e-09
-4.3215353e-09
2.6193159e-09
4.393248e-09
-2.4893623e-09
-4.6228701e-09
2.5603339e-09
4.6919702e-09
-2.3984576e-09
-4.9111569e-09
2.467922e-09
4.9786727e-09
-2.2729301e-09
-5.1804854e-09
2.3419453e-09
5.2474865e-09
-2.1137812e-09
-5.4252045e-09
2.1834501e-09
5.4927707e-09
-1.9232122e-09
-6.7494194e-09
1.9946358e-09
6.8186143e-09
-1.7045758e-09
-5.8191332e-09
1.7788047e-09
5.8909768e-09
-3.5275852e-10
-5.9577934e-09
4.3077551e-10
6.0332411e-09
-9.2381612e-11
-7.16018e-09
1.7508791e-10
7.2401126e-09
-9.2993645e-10
-6.0923127e-09
1.0181355e-09
6.177524e-09
-6.5370221e-10
-6.0773723e-09
7.480861e-10
6.1685569e-09
7.2811778e-10
-7.1095118e-09
-6.269806e-10
7.2072548e-09
9.8753694e-10
-6.9632291e-09
-8.792093e-10
7.0680017e-09
1.2247666e-09
-5.6313669e-09
-1.1089477e-09
5.7435231e-09
1.4302057e-09
-5.3248555e-09
-1.3067396e-09
5.444625e-09
1.5943112e-09
-4.9246517e-09
-1.4631927e-09
5.0521341e-09
2.8175715e-09
-3.3102189e-09
-2.6789497e-09
3.4453798e-09
1.7632579e-09
-2.6882002e-09
-1.6174383e-09
2.8308739e-09
1.7537717e-09
-1.9354689e-09
-1.6012132e-09
2.0853622e-09
2.7856037e-09
7.0963466e-11
-2.6269075e-09
8.5739137e-11
2.6402111e-09
1.1223235e-09
-2.4760997e-09
-9.5931092e-10
2.433524e-09
3.4384922e-09
-2.2647928e-09
-3.2697157e-09
1.0702727e-09
4.7795808e-09
-8.9768574e-10
-4.6055627e-09
7.9401677e-10
7.3065484e-09
-6.1817883e-10
-7.1277306e-09
5.3082276e-10
8.6856647e-09
-3.5203256e-10
-8.5021337e-09
3.241198e-10
1.0900759e-08
-1.4180941e-10
-1.0711052e-08
2.1339931e-10
1.1186695e-08
-2.807249e-11
-1.0991766e-08
1.886261e-10
9.7066583e-09
-1.9537164e-11
-9.5331773e-09
2.157588e-10
5.2383024e-09
-7.9910005e-11
-5.1085077e-09
1.1270389e-08
1.2848015e-08
-1.2135249e-08
-1.341663e-08
1.6360268e-08
2.023134e-08
-1.8073933e-08
-2.1140217e-08
1.4267364e-08
1.8733682e-08
-1.597957e-08
-1.977053e-08
7.0631417e-09
1.0311617e-08
-8.352479e-09
-1.1270147e-08
-3.1204692e-10
1.3426049e-09
-6.3043147e-10
-2.136632e-09
-2.1475816e-09
-1.6346425e-09
1.4542914e-09
9.9318229e-10
-3.9964887e-10
-9.2831246e-11
-1.1554323e-10
-4.0855224e-10
1.2155809e-09
1.8371471e-09
-1.5940992e-09
-2.2163083e-09
9.4066933e-10
1.9210393e-09
-1.2075369e-09
-2.195826e-09
-7.9526333e-10
3.9436112e-10
6.2090819e-10
-5.8007562e-10
-2.9862497e-09
-1.9668315e-09
2.8869638e-09
1.8553875e-09
-4.8405439e-09
-3.9568677e-09
4.8004591e-09
3.9050163e-09
-5.8602839e-09
-5.3243059e-09
5.865841e-09
5.31867e-09
-6.2492376e-09
-5.6656025e-09
6.2891279e-09
5.6949901e-09
-5.9122868e-09
-5.4263804e-09
5.9771814e-09
5.4819098e-09
-5.3509611e-09
-4.5659004e-09
5.4336544e-09
4.6406329e-09
-4.4911982e-09
-3.7000113e-09
4.5863639e-09
3.7885858e-09
-3.7684082e-09
-2.7344319e-09
3.8721097e-09
2.8327224e-09
-3.1286196e-09
-1.9686509e-09
3.2378418e-09
2.0734479e-09
-2.704714e-09
-1.439208e-09
2.8169239e-09
1.5479364e-09
-2.3850378e-09
-1.0437383e-09
2.4980431e-09
1.1542478e-09
-2.2675143e-09
-7.7460316e-10
2.3794613e-09
8.8504205e-10
-2.1119749e-09
-7.2736076e-10
2.2213432e-09
8.361306e-10
-2.1211228e-09
-8.8412656e-10
2.2267229e-09
9.8989976e-10
-2.1660501e-09
-1.0055126e-09
2.2670141e-09
1.1072471e-09
-2.3419389e-09
-1.1866914e-09
2.4377223e-09
1.283641e-09
-2.413508e-09
-1.5248746e-09
2.5038821e-09
1.6165967e-09
-2.5915988e-09
-2.1191941e-09
2.6766183e-09
2.2055467e-09
-2.5343355e-09
-2.293707e-09
2.6143071e-09
2.3748296e-09
-2.5673981e-09
-3.7038232e-09
2.6428523e-09
3.7801097e-09
-2.5742638e-09
-2.9019472e-09
2.6459157e-09
2.9740146e-09
-2.5508387e-09
-4.3190932e-09
2.6195425e-09
4.3877395e-09
-2.4943944e-09
-4.6199087e-09
2.561104e-09
4.6860702e-09
-2.4034937e-09
-4.9077058e-09
2.4692324e-09
4.972415e-09
-2.2779575e-09
-5.176568e-09
2.3437772e-09
5.2409128e-09
-2.1188281e-09
-5.4208424e-09
2.1857597e-09
5.4859274e-09
-1.9283049e-09
-6.7446353e-09
1.9973452e-09
6.8115522e-09
-1.7097224e-09
-5.8139528e-09
1.7818326e-09
5.8837518e-09
-3.5796627e-10
-5.9522483e-09
4.3404577e-10
6.0259115e-09
-9.7656265e-11
-7.1543111e-09
1.7851715e-10
7.2327366e-09
1.7428285e-10
-6.0861716e-09
-8.7925191e-11
6.1701575e-09
4.5046171e-10
-6.0710275e-09
-3.57997e-10
6.1612587e-09
7.2268859e-10
-7.1030477e-09
-6.2362284e-10
7.2000925e-09
9.8211345e-10
-6.9567474e-09
-8.7607375e-10
7.0610437e-09
2.3289634e-09
-5.6249947e-09
-2.2157059e-09
5.736844e-09
2.534537e-09
-5.3187426e-09
-2.413954e-09
5.4383119e-09
2.6988774e-09
-4.9189753e-09
-2.5710019e-09
5.0462916e-09
1.7033808e-09
-3.3051886e-09
-1.5683927e-09
3.4401373e-09
1.7591506e-09
-2.6840635e-09
-1.61738e-09
2.8263908e-09
1.7503828e-09
-1.93252e-09
-1.6023079e-09
2.0818383e-09
2.7831635e-09
7.237481e-11
-2.6294007e-09
8.3427977e-11
2.6389785e-09
1.1217728e-09
-2.4802671e-09
-9.6008613e-10
2.4337657e-09
3.4354704e-09
-2.2709313e-09
-3.2685561e-09
1.0722177e-09
4.7734742e-09
-9.060528e-10
-4.6019645e-09
7.9779133e-10
6.1870578e-09
-6.2885161e-10
-6.01146e-09
5.3630401e-10
8.671125e-09
-3.6495329e-10
-8.4916144e-09
3.3049302e-10
1.0881133e-08
-1.5716264e-10
-1.0697124e-08
2.1912132e-10
1.1164465e-08
-4.5314148e-11
-1.0976102e-08
1.9684825e-10
9.6899666e-09
-2.885493e-11
-9.5149336e-09
2.3073124e-10
5.2360738e-09
-7.3537952e-11
-5.0863094e-09
1.0991076e-08
1.2717965e-08
-1.1808719e-08
-1.3273634e-08
1.6805975e-08
2.0081998e-08
-1.7347432e-08
-2.0511212e-08
1.4938807e-08
1.8738406e-08
-1.5586022e-08
-1.9253064e-08
7.1746937e-09
9.9788277e-09
-7.7841673e-09
-1.0589425e-08
-1.7454282e-10
1.2223876e-09
-4.1957672e-10
-1.8391973e-09
-1.8902579e-09
-1.5451341e-09
1.3780558e-09
9.6448824e-10
-5.1885453e-11
1.6076607e-10
-3.6674178e-10
-6.6779378e-10
1.3911567e-09
1.9701441e-09
-1.7190269e-09
-2.3870369e-09
1.1630586e-09
2.1288681e-09
-1.4052326e-09
-2.4521978e-09
-6.2004269e-10
4.5492625e-10
4.5489788e-10
-6.8883652e-10
-2.9500708e-09
-1.9321522e-09
2.8500285e-09
1.7780563e-09
-4.8186735e-09
-3.9369042e-09
4.7711766e-09
3.8501195e-09
-5.8452053e-09
-5.3110073e-09
5.8386627e-09
5.2787029e-09
-6.1268534e-09
-5.6544472e-09
6.1515988e-09
5.6650175e-09
-5.90324e-09
-5.3044707e-09
5.9521993e-09
5.348159e-09
-5.3436629e-09
-4.6654867e-09
5.4116876e-09
4.7344289e-09
-4.3744595e-09
-3.6881964e-09
4.4572554e-09
3.7760887e-09
-3.7639833e-09
-2.8335408e-09
3.8578694e-09
2.9350849e-09
-3.1252658e-09
-1.9574726e-09
3.2272024e-09
2.0680601e-09
-2.5911123e-09
-1.4291749e-09
2.6984981e-09
1.5450864e-09
-2.3827198e-09
-1.0349803e-09
2.4931639e-09
1.1533337e-09
-2.2652053e-09
-7.6717453e-10
2.3765773e-09
8.8555921e-10
-2.1094521e-09
-7.2128357e-10
2.2200319e-09
8.3768589e-10
-2.1182554e-09
-7.6840738e-10
2.2266088e-09
8.8125425e-10
-2.1627821e-09
-1.0019872e-09
2.2677048e-09
1.1101251e-09
-2.3382683e-09
-1.2952579e-09
2.4388733e-09
1.3979279e-09
-2.40947e-09
-1.6344632e-09
2.5052071e-09
1.7312793e-09
-2.5872531e-09
-2.0077825e-09
2.6778902e-09
2.0986937e-09
-2.5297522e-09
-2.2940627e-09
2.6153517e-09
2.3793108e-09
-2.5626451e-09
-3.7049014e-09
2.6435377e-09
3.7849762e-09
-2.5693977e-09
-2.9036747e-09
2.6461465e-09
2.9792686e-09
-2.5459007e-09
-4.3214115e-09
2.6192603e-09
4.3933753e-09
-2.4894131e-09
-4.6227726e-09
2.5602853e-09
4.6920705e-09
-2.3984995e-09
-4.9110808e-09
2.4678815e-09
4.9787509e-09
-2.2729642e-09
-5.1804268e-09
2.3419132e-09
5.2475468e-09
-2.1138088e-09
-5.4251598e-09
2.1834251e-09
5.4928166e-09
-1.9232338e-09
-6.7493859e-09
1.9946155e-09
6.8186485e-09
-1.7045922e-09
-5.8191084e-09
1.7787888e-09
5.8910021e-09
-3.527704e-10
-5.9577754e-09
4.3076392e-10
6.0332595e-09
-9.2389334e-11
-7.1601673e-09
1.7507985e-10
7.2401257e-09
-9.2994203e-10
-6.0923035e-09
1.01813e-09
6.1775331e-09
-6.5370665e-10
-6.0773655e-09
7.4808256e-10
6.1685627e-09
7.2811522e-10
-7.1095079e-09
-6.2698269e-10
7.2072597e-09
9.8753627e-10
-6.9632263e-09
-8.7921046e-10
7.0680046e-09
1.2247665e-09
-5.6313642e-09
-1.1089484e-09
5.7435241e-09
1.4302055e-09
-5.3248546e-09
-1.3067398e-09
5.444626e-09
1.5943112e-09
-4.9246526e-09
-1.4631927e-09
5.052135e-09
2.8175716e-09
-3.310219e-09
-2.6789495e-09
3.4453807e-09
1.7632581e-09
-2.6881994e-09
-1.617438e-09
2.8308739e-09
1.7537719e-09
-1.9354689e-09
-1.6012131e-09
2.0853622e-09
2.7856037e-09
7.0964327e-11
-2.6269074e-09
8.5739151e-11
2.6402112e-09
1.1223234e-09
-2.4760995e-09
-9.5931093e-10
2.4335241e-09
3.4384921e-09
-2.2647927e-09
-3.2697157e-09
1.0702728e-09
4.7795808e-09
-8.9768571e-10
-4.6055627e-09
7.940169e-10
7.3065474e-09
-6.1817878e-10
-7.1277306e-09
5.308228e-10
8.6856647e-09
-3.5203253e-10
-8.5021338e-09
3.2411987e-10
1.0900759e-08
-1.4180938e-10
-1.0711052e-08
2.1339941e-10
1.1186695e-08
-2.8072435e-11
-1.0991766e-08
1.8862612e-10
9.7066583e-09
-1.9537098e-11
-9.5331773e-09
2.1575874e-10
5.2383024e-09
-7.991001e-11
-5.1085077e-09
)
;

boundaryField
{
    movingWall
    {
        type            calculated;
        value           nonuniform List<scalar> 
16
(
2.5892396e-10
2.4046696e-10
2.5892384e-10
2.4046687e-10
4.3176483e-09
4.3109688e-09
4.3176482e-09
4.3109688e-09
-1.0710035e-10
-1.2067331e-10
-1.0710057e-10
-1.2067334e-10
-4.1779928e-09
-4.2019522e-09
-4.177993e-09
-4.2019521e-09
)
;
    }
    CPLReceiveMD
    {
        type            calculated;
        value           nonuniform List<scalar> 
16
(
-1.3369453e-08
9.5179904e-09
1.0305362e-08
9.5245235e-09
1.0110976e-08
1.1110158e-08
1.130512e-08
1.1139007e-08
-1.1156523e-08
-1.0819679e-08
-1.0963202e-08
-1.07799e-08
-1.3099831e-08
-1.183364e-08
-1.178431e-08
-1.1819016e-08
)
;
    }
    streamwiseIn
    {
        type            cyclic;
    }
    streamwiseOut
    {
        type            cyclic;
    }
    front
    {
        type            cyclic;
    }
    back
    {
        type            cyclic;
    }
}


// ************************************************************************* //
