/*--------------------------------*- C++ -*----------------------------------*\
| =========                 |                                                 |
| \\      /  F ield         | OpenFOAM: The Open Source CFD Toolbox           |
|  \\    /   O peration     | Version:  3.0.x                                 |
|   \\  /    A nd           | Web:      www.OpenFOAM.org                      |
|    \\/     M anipulation  |                                                 |
\*---------------------------------------------------------------------------*/
FoamFile
{
    version     2.0;
    format      ascii;
    class       volScalarField;
    location    "475";
    object      sigmaxy;
}
// * * * * * * * * * * * * * * * * * * * * * * * * * * * * * * * * * * * * * //

dimensions      [0 2 -2 0 0 0 0];

internalField   nonuniform List<scalar> 
960
(
0.019651117
0.019651042
0.019651044
0.019651108
0.014134613
0.014134592
0.014134591
0.014134608
0.0050955469
0.0050955624
0.005095559
0.0050955456
0.0016388174
0.0016388416
0.0016388389
0.0016388194
0.00074522274
0.00074523523
0.00074523244
0.00074522589
0.00076749369
0.0007674848
0.00076748141
0.00076749426
0.0010072488
0.0010072316
0.0010072276
0.0010072468
0.0012513847
0.0012513697
0.0012513658
0.0012513821
0.0014809819
0.0014809716
0.0014809697
0.0014809792
0.0017237426
0.0017237367
0.0017237353
0.0017237405
0.0020008461
0.0020008418
0.0020008389
0.0020008446
0.0023177851
0.0023177795
0.0023177766
0.0023177841
0.0026694558
0.0026694482
0.0026694452
0.0026694548
0.0030467755
0.003046766
0.0030467629
0.0030467737
0.0034410216
0.0034410115
0.0034410077
0.0034410197
0.0038457049
0.0038456948
0.0038456909
0.003845703
0.0042568433
0.0042568336
0.0042568303
0.0042568413
0.0046724957
0.0046724875
0.0046724833
0.0046724936
0.0050921072
0.0050921002
0.0050920966
0.0050921049
0.0055159307
0.0055159249
0.0055159211
0.0055159283
0.0059446011
0.0059445962
0.0059445916
0.0059445984
0.0063788632
0.0063788593
0.0063788545
0.006378861
0.0068194138
0.0068194108
0.0068194065
0.0068194121
0.0072668158
0.0072668131
0.0072668085
0.0072668133
0.0077214528
0.007721451
0.007721445
0.0077214501
0.008183521
0.0081835202
0.008183514
0.0081835188
0.0086530244
0.0086530245
0.0086530195
0.0086530227
0.0091297806
0.0091297824
0.0091297747
0.0091297807
0.0096134171
0.0096134174
0.0096134162
0.0096134158
0.010103405
0.010103404
0.010103399
0.010103401
0.010599033
0.010599039
0.010599027
0.010599035
0.011099443
0.011099449
0.011099444
0.011099445
0.011603637
0.011603637
0.011603633
0.011603633
0.012110466
0.012110467
0.012110463
0.012110462
0.012618676
0.012618678
0.012618674
0.012618672
0.013126886
0.013126895
0.013126892
0.013126889
0.013633636
0.013633639
0.013633636
0.013633633
0.014137354
0.014137352
0.014137349
0.014137352
0.014636403
0.014636414
0.014636413
0.014636414
0.015129117
0.015129123
0.015129122
0.015129116
0.015613741
0.015613741
0.01561374
0.015613734
0.01608849
0.016088504
0.016088504
0.016088497
0.016551594
0.016551609
0.01655161
0.016551602
0.017001258
0.01700126
0.017001262
0.01700126
0.01743567
0.017435673
0.017435676
0.017435673
0.017853062
0.017853072
0.017853075
0.017853066
0.018251709
0.018251719
0.018251717
0.018251707
0.018629908
0.018629917
0.018629916
0.018629907
0.018986019
0.018986029
0.018986035
0.018986025
0.019318492
0.019318495
0.019318501
0.019318498
0.019625833
0.019625835
0.019625843
0.01962584
0.019906661
0.019906664
0.019906671
0.019906662
0.020159697
0.020159699
0.020159706
0.020159691
0.020383757
0.020383765
0.020383772
0.020383757
0.020577817
0.020577817
0.020577824
0.020577817
0.020740967
0.020740959
0.020740965
0.020740959
0.02087242
0.020872417
0.020872421
0.020872417
0.020971561
0.020971557
0.020971567
0.020971557
0.021037916
0.021037917
0.021037932
0.021037917
0.021071173
0.02107118
0.0210712
0.02107118
0.019651109
0.019651035
0.019651037
0.019651097
0.014134608
0.014134587
0.014134588
0.014134604
0.0050955469
0.0050955613
0.0050955598
0.005095548
0.00163882
0.001638843
0.001638841
0.0016388233
0.00074522723
0.00074523813
0.00074523521
0.00074523157
0.00076749752
0.00076748719
0.00076748418
0.00076749913
0.00100725
0.0010072314
0.0010072291
0.0010072483
0.0012513839
0.0012513683
0.0012513659
0.0012513815
0.0014809805
0.0014809709
0.0014809684
0.0014809786
0.0017237419
0.0017237366
0.0017237347
0.0017237399
0.0020008461
0.0020008417
0.0020008389
0.0020008446
0.0023177857
0.0023177795
0.0023177773
0.0023177848
0.0026694565
0.0026694482
0.0026694459
0.0026694554
0.0030467761
0.0030467667
0.0030467629
0.0030467743
0.0034410216
0.0034410122
0.0034410084
0.0034410197
0.0038457049
0.0038456948
0.0038456915
0.0038457036
0.0042568433
0.0042568336
0.0042568303
0.0042568413
0.0046724957
0.0046724875
0.0046724833
0.0046724929
0.0050921079
0.0050921002
0.0050920966
0.0050921056
0.0055159307
0.0055159249
0.0055159211
0.0055159283
0.0059446004
0.0059445962
0.005944591
0.0059445978
0.0063788632
0.0063788593
0.0063788545
0.006378861
0.0068194145
0.0068194108
0.0068194065
0.0068194121
0.0072668152
0.0072668131
0.0072668079
0.0072668133
0.0077214522
0.007721451
0.0077214456
0.0077214501
0.008183521
0.0081835202
0.0081835146
0.0081835188
0.008653025
0.0086530245
0.0086530188
0.0086530227
0.0091297819
0.0091297765
0.0091297753
0.0091297748
0.0096134177
0.0096134181
0.0096134175
0.0096134165
0.010103405
0.01010341
0.010103399
0.010103407
0.010599033
0.010599039
0.010599027
0.010599035
0.011099443
0.011099449
0.011099444
0.011099445
0.011603637
0.011603637
0.011603633
0.011603633
0.012110466
0.012110467
0.012110463
0.012110462
0.012618676
0.012618678
0.012618674
0.012618672
0.013126886
0.013126895
0.013126892
0.013126889
0.013633636
0.013633639
0.013633636
0.013633633
0.014137354
0.014137352
0.014137349
0.014137352
0.014636403
0.014636414
0.014636413
0.014636414
0.015129117
0.01512913
0.015129122
0.015129116
0.015613741
0.015613747
0.01561374
0.015613734
0.01608849
0.016088497
0.016088504
0.016088497
0.016551594
0.016551602
0.01655161
0.016551602
0.017001258
0.017001266
0.017001262
0.01700126
0.01743567
0.017435679
0.017435676
0.017435673
0.017853062
0.017853072
0.017853075
0.017853066
0.018251709
0.018251712
0.018251717
0.018251714
0.018629908
0.018629911
0.018629916
0.018629907
0.018986019
0.018986029
0.018986035
0.018986019
0.019318492
0.019318495
0.019318502
0.019318498
0.019625833
0.019625835
0.019625843
0.01962584
0.019906661
0.019906664
0.019906671
0.019906662
0.020159697
0.020159699
0.020159706
0.020159691
0.020383763
0.020383765
0.020383772
0.020383757
0.020577817
0.020577817
0.020577824
0.020577817
0.02074096
0.020740959
0.020740965
0.020740959
0.02087242
0.020872417
0.020872421
0.020872417
0.020971561
0.020971557
0.020971567
0.020971557
0.021037916
0.021037917
0.021037932
0.021037917
0.021071173
0.02107118
0.0210712
0.02107118
0.019651117
0.019651043
0.019651044
0.019651107
0.014134613
0.014134591
0.014134592
0.014134608
0.0050955469
0.0050955606
0.005095559
0.0050955474
0.0016388174
0.0016388402
0.0016388382
0.0016388207
0.00074522274
0.00074523471
0.00074523243
0.00074522641
0.0007674937
0.00076748444
0.0007674814
0.00076749529
0.0010072488
0.0010072307
0.0010072276
0.0010072477
0.0012513847
0.0012513689
0.0012513665
0.0012513822
0.0014809819
0.0014809722
0.0014809697
0.0014809794
0.0017237426
0.0017237373
0.0017237346
0.0017237413
0.0020008461
0.0020008411
0.0020008389
0.0020008447
0.0023177851
0.0023177788
0.0023177766
0.0023177841
0.0026694558
0.0026694482
0.0026694452
0.0026694548
0.0030467755
0.003046766
0.0030467629
0.0030467737
0.0034410216
0.0034410115
0.0034410077
0.0034410197
0.0038457049
0.0038456948
0.0038456909
0.003845703
0.0042568433
0.0042568336
0.0042568303
0.0042568413
0.0046724957
0.0046724874
0.0046724833
0.0046724936
0.0050921072
0.0050921002
0.0050920966
0.0050921049
0.0055159307
0.0055159249
0.0055159211
0.0055159283
0.0059446011
0.0059445962
0.0059445916
0.0059445984
0.0063788632
0.0063788593
0.0063788545
0.006378861
0.0068194138
0.0068194108
0.0068194065
0.0068194121
0.0072668158
0.0072668131
0.0072668085
0.0072668133
0.0077214528
0.007721451
0.007721445
0.0077214501
0.008183521
0.0081835202
0.008183514
0.0081835188
0.0086530244
0.0086530245
0.0086530195
0.0086530227
0.0091297806
0.0091297824
0.0091297747
0.0091297807
0.0096134171
0.0096134174
0.0096134162
0.0096134158
0.010103405
0.010103404
0.010103399
0.010103401
0.010599033
0.010599039
0.010599027
0.010599035
0.011099443
0.011099449
0.011099444
0.011099445
0.011603637
0.011603637
0.011603633
0.011603633
0.012110466
0.012110467
0.012110463
0.012110462
0.012618676
0.012618678
0.012618674
0.012618672
0.013126886
0.013126895
0.013126892
0.013126889
0.013633636
0.013633639
0.013633636
0.013633633
0.014137354
0.014137352
0.014137349
0.014137352
0.014636403
0.014636414
0.014636413
0.014636414
0.015129117
0.015129123
0.015129122
0.015129116
0.015613741
0.015613741
0.01561374
0.015613734
0.01608849
0.016088504
0.016088504
0.016088497
0.016551594
0.016551609
0.01655161
0.016551602
0.017001258
0.01700126
0.017001262
0.01700126
0.01743567
0.017435673
0.017435676
0.017435673
0.017853062
0.017853072
0.017853075
0.017853066
0.018251709
0.018251719
0.018251717
0.018251707
0.018629908
0.018629917
0.018629916
0.018629907
0.018986019
0.018986029
0.018986035
0.018986025
0.019318492
0.019318495
0.019318501
0.019318498
0.019625833
0.019625835
0.019625843
0.01962584
0.019906661
0.019906664
0.019906671
0.019906662
0.020159697
0.020159699
0.020159706
0.020159691
0.020383757
0.020383765
0.020383772
0.020383757
0.020577817
0.020577817
0.020577824
0.020577817
0.020740967
0.020740959
0.020740965
0.020740959
0.02087242
0.020872417
0.020872421
0.020872417
0.020971561
0.020971557
0.020971567
0.020971557
0.021037916
0.021037917
0.021037932
0.021037917
0.021071173
0.02107118
0.0210712
0.02107118
0.019651109
0.019651035
0.019651037
0.019651097
0.014134608
0.014134587
0.014134588
0.014134604
0.0050955469
0.0050955613
0.0050955598
0.005095548
0.00163882
0.001638843
0.001638841
0.0016388233
0.00074522723
0.00074523813
0.00074523521
0.00074523157
0.00076749752
0.00076748719
0.00076748418
0.00076749914
0.00100725
0.0010072314
0.0010072291
0.0010072483
0.0012513839
0.0012513683
0.0012513659
0.0012513815
0.0014809805
0.0014809709
0.0014809684
0.0014809786
0.0017237419
0.0017237366
0.0017237347
0.0017237399
0.0020008461
0.0020008417
0.0020008389
0.0020008446
0.0023177857
0.0023177795
0.0023177773
0.0023177848
0.0026694565
0.0026694482
0.0026694459
0.0026694554
0.0030467761
0.0030467667
0.0030467629
0.0030467743
0.0034410216
0.0034410122
0.0034410084
0.0034410197
0.0038457049
0.0038456948
0.0038456915
0.0038457036
0.0042568433
0.0042568336
0.0042568303
0.0042568413
0.0046724957
0.0046724875
0.0046724833
0.0046724929
0.0050921079
0.0050921002
0.0050920966
0.0050921056
0.0055159307
0.0055159249
0.0055159211
0.0055159283
0.0059446004
0.0059445962
0.005944591
0.0059445978
0.0063788632
0.0063788593
0.0063788545
0.006378861
0.0068194145
0.0068194108
0.0068194065
0.0068194121
0.0072668152
0.0072668131
0.0072668079
0.0072668133
0.0077214522
0.007721451
0.0077214456
0.0077214501
0.008183521
0.0081835202
0.0081835146
0.0081835188
0.008653025
0.0086530245
0.0086530188
0.0086530227
0.0091297819
0.0091297765
0.0091297753
0.0091297748
0.0096134177
0.0096134181
0.0096134175
0.0096134165
0.010103405
0.01010341
0.010103399
0.010103407
0.010599033
0.010599039
0.010599027
0.010599035
0.011099443
0.011099449
0.011099444
0.011099445
0.011603637
0.011603637
0.011603633
0.011603633
0.012110466
0.012110467
0.012110463
0.012110462
0.012618676
0.012618678
0.012618674
0.012618672
0.013126886
0.013126895
0.013126892
0.013126889
0.013633636
0.013633639
0.013633636
0.013633633
0.014137354
0.014137352
0.014137349
0.014137352
0.014636403
0.014636414
0.014636413
0.014636414
0.015129117
0.01512913
0.015129122
0.015129116
0.015613741
0.015613747
0.01561374
0.015613734
0.01608849
0.016088497
0.016088504
0.016088497
0.016551594
0.016551602
0.01655161
0.016551602
0.017001258
0.017001266
0.017001262
0.01700126
0.01743567
0.017435679
0.017435676
0.017435673
0.017853062
0.017853072
0.017853075
0.017853066
0.018251709
0.018251712
0.018251717
0.018251714
0.018629908
0.018629911
0.018629916
0.018629907
0.018986019
0.018986029
0.018986035
0.018986019
0.019318492
0.019318495
0.019318502
0.019318498
0.019625833
0.019625835
0.019625843
0.01962584
0.019906661
0.019906664
0.019906671
0.019906662
0.020159697
0.020159699
0.020159706
0.020159691
0.020383763
0.020383765
0.020383772
0.020383757
0.020577817
0.020577817
0.020577824
0.020577817
0.02074096
0.020740959
0.020740965
0.020740959
0.02087242
0.020872417
0.020872421
0.020872417
0.020971561
0.020971557
0.020971567
0.020971557
0.021037916
0.021037917
0.021037932
0.021037917
0.021071173
0.02107118
0.0210712
0.02107118
)
;

boundaryField
{
    movingWall
    {
        type            calculated;
        value           nonuniform List<scalar> 
16
(
0.021079502
0.021079502
0.021079502
0.021079502
0.021079502
0.021079502
0.021079502
0.021079502
0.021079529
0.021079529
0.021079529
0.021079529
0.021079502
0.021079502
0.021079502
0.021079502
)
;
    }
    CPLReceiveMD
    {
        type            calculated;
        value           nonuniform List<scalar> 
16
(
0.018780258
0.018780249
0.018780258
0.018780249
0.018780157
0.01878015
0.018780158
0.01878015
0.018780159
0.01878015
0.018780159
0.01878015
0.018780248
0.018780236
0.018780246
0.018780236
)
;
    }
    streamwiseIn
    {
        type            cyclic;
    }
    streamwiseOut
    {
        type            cyclic;
    }
    front
    {
        type            cyclic;
    }
    back
    {
        type            cyclic;
    }
}


// ************************************************************************* //
