/*--------------------------------*- C++ -*----------------------------------*\
| =========                 |                                                 |
| \\      /  F ield         | OpenFOAM: The Open Source CFD Toolbox           |
|  \\    /   O peration     | Version:  3.0.x                                 |
|   \\  /    A nd           | Web:      www.OpenFOAM.org                      |
|    \\/     M anipulation  |                                                 |
\*---------------------------------------------------------------------------*/
FoamFile
{
    version     2.0;
    format      ascii;
    class       volScalarField;
    location    "475";
    object      sigmaxx;
}
// * * * * * * * * * * * * * * * * * * * * * * * * * * * * * * * * * * * * * //

dimensions      [0 2 -2 0 0 0 0];

internalField   nonuniform List<scalar> 
960
(
-4.1769112e-09
-1.2283584e-08
1.200155e-08
1.3170795e-08
-1.9061594e-08
-2.206931e-08
2.0541745e-08
2.2563808e-08
-1.8584399e-08
-1.971681e-08
1.7746115e-08
2.024894e-08
-1.0312672e-08
-1.126536e-08
9.5282971e-09
1.1824255e-08
-1.8115552e-09
-1.7768313e-09
1.5120775e-09
2.2880619e-09
5.2708808e-10
1.1896407e-09
-7.7499626e-10
-7.8844084e-10
-8.6182302e-10
-2.6664931e-10
6.6359329e-10
5.5946117e-10
-1.7640351e-09
-2.0788409e-09
1.6188766e-09
2.2797657e-09
-1.4216616e-09
-2.187397e-09
1.312079e-09
2.3135404e-09
5.1122114e-10
-3.7715359e-10
-6.0156858e-10
4.4444419e-10
2.8188871e-09
2.1311811e-09
-2.8995016e-09
-2.1083678e-09
5.0000687e-09
4.123559e-09
-5.0760393e-09
-4.132935e-09
6.0328819e-09
5.6398343e-09
-6.1068301e-09
-5.6715224e-09
6.5767138e-09
5.978323e-09
-6.6499167e-09
-6.024817e-09
6.2533825e-09
5.8607022e-09
-6.3262115e-09
-5.9165455e-09
5.8146178e-09
4.933406e-09
-5.8869026e-09
-4.9947326e-09
4.8914575e-09
4.1699073e-09
-4.9629279e-09
-4.2340096e-09
4.2015499e-09
3.1899037e-09
-4.2719094e-09
-3.2550859e-09
3.5520339e-09
2.4756781e-09
-3.620868e-09
-2.5410801e-09
3.1760749e-09
2.045635e-09
-3.2429893e-09
-2.1106013e-09
2.8515875e-09
1.6824884e-09
-2.9163294e-09
-1.7462473e-09
2.7941469e-09
1.3824289e-09
-2.8565043e-09
-1.4443325e-09
2.5509264e-09
1.3595829e-09
-2.6105866e-09
-1.4191693e-09
2.5562339e-09
1.6050197e-09
-2.6128828e-09
-1.6619225e-09
2.5792471e-09
1.6662048e-09
-2.6326936e-09
-1.7201477e-09
2.8340373e-09
1.7571796e-09
-2.8842101e-09
-1.8079927e-09
2.8701319e-09
2.0930027e-09
-2.9170716e-09
-2.1406306e-09
3.125846e-09
2.8896926e-09
-3.1696995e-09
-2.9341953e-09
2.9309578e-09
2.8106884e-09
-2.9719724e-09
-2.8522403e-09
2.9476234e-09
5.180217e-09
-2.9861371e-09
-5.2190976e-09
2.951158e-09
3.1150364e-09
-2.9875839e-09
-3.1516167e-09
2.9395226e-09
5.4880222e-09
-2.9743307e-09
-5.5227495e-09
2.9113597e-09
5.6384838e-09
-2.9450596e-09
-5.6718628e-09
2.8659545e-09
5.7824221e-09
-2.899083e-09
-5.8149967e-09
2.8032191e-09
5.9168824e-09
-2.8363232e-09
-5.9492171e-09
2.7236783e-09
6.0390409e-09
-2.7572907e-09
-6.0717037e-09
2.6284351e-09
8.3652931e-09
-2.6630674e-09
-8.398841e-09
2.5191585e-09
6.2356232e-09
-2.5552986e-09
-6.2705894e-09
1.7895175e-10
6.3047794e-09
-2.1705448e-10
-6.341661e-09
4.8804815e-11
8.5701572e-09
-8.9281922e-11
-8.6094074e-09
-8.7158428e-11
6.3717523e-09
4.3945417e-11
-6.4137732e-09
-2.2524301e-10
6.3641832e-09
1.7898583e-10
-6.4093205e-09
-3.6135355e-10
8.544536e-09
3.1180216e-10
-8.5930746e-09
-4.9106378e-10
8.4713885e-09
4.3803015e-10
-8.523548e-09
-2.8288268e-09
6.141173e-09
2.7721882e-09
-6.197107e-09
-2.9316122e-09
5.988048e-09
2.8713136e-09
-6.0478399e-09
-3.0137815e-09
5.7881654e-09
2.9498385e-09
-5.8518287e-09
-8.516923e-10
3.3169322e-09
7.8419443e-10
-3.3844106e-09
-8.7957672e-10
3.0063705e-09
8.086886e-10
-3.077537e-09
-8.7519249e-10
2.6305991e-09
8.0115292e-10
-2.7052604e-09
-3.0559226e-09
-3.618809e-11
2.9790397e-09
-4.171515e-11
-2.98383e-09
-5.6088667e-10
2.9044731e-09
4.8004233e-10
-2.8812235e-09
-3.3820761e-09
2.7998054e-09
3.2986183e-09
-5.3610913e-10
-4.0510776e-09
4.5302607e-10
3.965322e-09
-3.988959e-10
-4.757869e-09
3.1442557e-10
4.6700693e-09
-2.6815221e-10
-7.6642432e-09
1.8247647e-10
7.5744871e-09
-1.6524667e-10
-1.0433587e-08
7.8581174e-11
1.0341583e-08
-1.0956078e-10
-1.0575253e-08
2.2656952e-11
1.0481072e-08
-9.8424196e-11
-9.8380039e-09
1.4427375e-11
9.7504871e-09
-1.1536568e-10
-4.2823771e-09
3.6768891e-11
4.2074948e-09
-1.0855087e-08
-1.2474446e-08
1.1270896e-08
1.2771136e-08
-1.8390444e-08
-2.1693637e-08
1.8648802e-08
2.1910188e-08
-1.5795399e-08
-1.9364868e-08
1.6095693e-08
1.9608334e-08
-7.920575e-09
-1.065739e-08
8.2071922e-09
1.0945829e-08
-2.5363746e-10
-1.6197126e-09
5.3195949e-10
1.9088104e-09
1.4372228e-09
1.0967255e-09
-1.196308e-09
-8.2381381e-10
-3.1244136e-10
-5.8571223e-10
5.1174238e-10
8.2647285e-10
-1.5312937e-09
-2.1532521e-09
1.6900347e-09
2.3540476e-09
-1.248762e-09
-2.2303942e-09
1.3686663e-09
2.3886017e-09
6.4314959e-10
-3.9328157e-10
-5.5876424e-10
5.0986744e-10
3.1408118e-09
2.1326251e-09
-3.0871106e-09
-2.0539897e-09
5.0742103e-09
4.133877e-09
-5.0459731e-09
-4.0880099e-09
6.0866475e-09
5.6529352e-09
-6.0789187e-09
-5.6341916e-09
6.3934404e-09
5.9907807e-09
-6.4018934e-09
-5.9937237e-09
6.2813112e-09
5.6491048e-09
-6.3024244e-09
-5.6689207e-09
5.8350698e-09
5.1630119e-09
-5.8660655e-09
-5.1957317e-09
4.6848019e-09
4.1749164e-09
-4.7235258e-09
-4.2173888e-09
4.2131159e-09
3.414536e-09
-4.257805e-09
-3.4641495e-09
3.5607366e-09
2.4770342e-09
-3.6098992e-09
-2.5314564e-09
2.9605838e-09
2.0463693e-09
-3.012896e-09
-2.1036412e-09
2.8562157e-09
1.6827964e-09
-2.9104337e-09
-1.7414164e-09
2.7973211e-09
1.3824123e-09
-2.8523052e-09
-1.441161e-09
2.5529013e-09
1.3594233e-09
-2.6076897e-09
-1.4172729e-09
2.5572188e-09
1.3829525e-09
-2.6110398e-09
-1.4390916e-09
2.5794186e-09
1.6661505e-09
-2.6316443e-09
-1.7199857e-09
2.8335489e-09
1.9791987e-09
-2.8837056e-09
-2.03034e-09
2.8691162e-09
2.3152197e-09
-2.9169031e-09
-2.3634647e-09
3.1244187e-09
2.6683009e-09
-3.1696999e-09
-2.7136184e-09
2.9292194e-09
2.8114302e-09
-2.9720113e-09
-2.8539364e-09
2.9456566e-09
5.1811806e-09
-2.9861137e-09
-5.2211174e-09
2.9490279e-09
3.1162191e-09
-2.9874233e-09
-3.1539315e-09
2.9372773e-09
5.4894208e-09
-2.9739825e-09
-5.525332e-09
2.9090335e-09
5.6400954e-09
-2.9444955e-09
-5.6746857e-09
2.8635778e-09
5.7842443e-09
-2.8982927e-09
-5.8180314e-09
2.8008114e-09
5.9189127e-09
-2.8353068e-09
-5.952434e-09
2.721235e-09
6.0412753e-09
-2.756061e-09
-6.075073e-09
2.625949e-09
8.3677252e-09
-2.6616553e-09
-8.4023327e-09
2.5166298e-09
6.2382435e-09
-2.5537408e-09
-6.2741721e-09
1.7638025e-10
6.3075748e-09
-2.1538679e-10
-6.3453031e-09
4.6191332e-11
8.573109e-09
-8.7543462e-11
-8.6130782e-09
2.1293086e-09
6.3748358e-09
-2.1734077e-09
-6.4174432e-09
1.9911913e-09
6.3673659e-09
-2.0383832e-09
-6.4129593e-09
-3.6405893e-10
8.5477761e-09
3.1349022e-10
-8.5966482e-09
-4.9376858e-10
8.4746349e-09
4.3960453e-10
-8.5270215e-09
-6.1238339e-10
6.1443637e-09
5.5447374e-10
-6.2004419e-09
-7.1510295e-10
5.9911081e-09
6.5336966e-10
-6.0509929e-09
-7.9715569e-10
5.7910062e-09
7.3159625e-10
-5.8547474e-09
-3.073126e-09
3.3194497e-09
3.0038149e-09
-3.3870301e-09
-8.8162898e-10
3.0084403e-09
8.0871908e-10
-3.0797771e-09
-8.7688588e-10
2.6320746e-09
8.0060655e-10
-2.7070213e-09
-3.057142e-09
-3.5481681e-11
2.9777938e-09
-4.2869579e-11
-2.9844457e-09
-5.611617e-10
2.90239e-09
4.7965545e-10
-2.8811022e-09
-3.3835862e-09
2.7967365e-09
3.299198e-09
-5.3513638e-10
-4.0541306e-09
4.4884288e-10
3.9671215e-09
-3.9700841e-10
-6.9819544e-09
3.090894e-10
6.8925456e-09
-2.6541141e-10
-7.6715126e-09
1.7601627e-10
7.5797472e-09
-1.6205993e-10
-1.04434e-08
7.0904715e-11
1.0348547e-08
-1.0669968e-10
-1.0586368e-08
1.4036237e-11
1.0488904e-08
-9.4313067e-11
-9.8463496e-09
9.7685782e-12
9.7596091e-09
-1.0787939e-10
-4.2834913e-09
3.9954985e-11
4.218594e-09
-1.1433258e-08
-1.2515539e-08
1.1458708e-08
1.2868619e-08
-1.9614681e-08
-2.2202769e-08
1.9424689e-08
2.2459998e-08
-1.6471804e-08
-1.9664227e-08
1.6360809e-08
1.9905659e-08
-9.0197959e-09
-1.1456763e-08
8.8934918e-09
1.1662159e-08
-8.2249587e-10
-1.9624857e-09
7.2052758e-10
2.1171047e-09
1.2358411e-09
1.0435337e-09
-1.3047058e-09
-9.2819612e-10
-2.0333321e-10
-3.751229e-10
1.5986844e-10
4.5481547e-10
-1.6074121e-09
-2.1566153e-09
1.5766041e-09
2.2052797e-09
-1.0892074e-09
-2.0187036e-09
1.0601638e-09
2.0409952e-09
8.107573e-10
-4.1182999e-10
-8.4466768e-10
4.1145006e-10
3.0948034e-09
2.1097476e-09
-3.1361694e-09
-2.1289668e-09
5.0372659e-09
4.1112305e-09
-5.0861432e-09
-4.1451165e-09
6.0584329e-09
5.6335453e-09
-6.1137416e-09
-5.6781609e-09
6.594479e-09
5.9758231e-09
-6.6546626e-09
-6.0279219e-09
6.2659401e-09
5.8603719e-09
-6.3293107e-09
-5.9174858e-09
5.8235411e-09
4.9341347e-09
-5.8887016e-09
-4.9944256e-09
4.8978498e-09
4.170931e-09
-4.963788e-09
-4.2330509e-09
4.2062014e-09
3.190897e-09
-4.2722037e-09
-3.2538528e-09
3.5554015e-09
2.4767722e-09
-3.6209274e-09
-2.5398028e-09
3.1784952e-09
2.0469084e-09
-3.2430169e-09
-2.1094051e-09
2.8533442e-09
1.6837425e-09
-2.9163278e-09
-1.7451873e-09
2.7954334e-09
1.3835132e-09
-2.8563808e-09
-1.4434236e-09
2.5518764e-09
1.360483e-09
-2.6103664e-09
-1.4184086e-09
2.5569419e-09
1.6057495e-09
-2.6126462e-09
-1.6612993e-09
2.5797792e-09
1.6667827e-09
-2.6324711e-09
-1.7196473e-09
2.8344414e-09
1.7576282e-09
-2.8840098e-09
-1.8075976e-09
2.8704411e-09
2.0933458e-09
-2.9168966e-09
-2.1403235e-09
3.1260834e-09
2.8899511e-09
-3.16955e-09
-2.9339609e-09
2.9311407e-09
2.8108806e-09
-2.9718463e-09
-2.8520637e-09
2.9477648e-09
5.1803585e-09
-2.9860318e-09
-5.2189658e-09
2.9512674e-09
3.1151396e-09
-2.9874972e-09
-3.1515199e-09
2.9396071e-09
5.4880968e-09
-2.9742605e-09
-5.522679e-09
2.9114241e-09
5.6385374e-09
-2.9450035e-09
-5.671812e-09
2.866003e-09
5.7824603e-09
-2.8990393e-09
-5.8149602e-09
2.8032568e-09
5.9169097e-09
-2.8362904e-09
-5.9491911e-09
2.7237085e-09
6.0390605e-09
-2.7572657e-09
-6.0716849e-09
2.6284589e-09
8.3653073e-09
-2.6630464e-09
-8.3988272e-09
2.5191766e-09
6.2356336e-09
-2.5552812e-09
-6.2705792e-09
1.78965e-10
6.3047871e-09
-2.1704104e-10
-6.3416534e-09
4.8814827e-11
8.5701629e-09
-8.9271883e-11
-8.6094017e-09
-8.7151176e-11
6.3717563e-09
4.3952837e-11
-6.4137688e-09
-2.2523802e-10
6.3641867e-09
1.7899135e-10
-6.4093169e-09
-3.6134954e-10
8.5445388e-09
3.1180617e-10
-8.5930722e-09
-4.910606e-10
8.4713901e-09
4.3803301e-10
-8.5235463e-09
-2.8288247e-09
6.1411746e-09
2.7721903e-09
-6.1971053e-09
-2.9316107e-09
5.9880493e-09
2.871315e-09
-6.0478385e-09
-3.0137803e-09
5.7881662e-09
2.9498396e-09
-5.8518277e-09
-8.5169153e-10
3.3169332e-09
7.8419519e-10
-3.38441e-09
-8.7957615e-10
3.006371e-09
8.0868914e-10
-3.0775364e-09
-8.7519202e-10
2.6305994e-09
8.0115334e-10
-2.7052599e-09
-3.0559223e-09
-3.6187918e-11
2.97904e-09
-4.1714467e-11
-2.9838297e-09
-5.6088677e-10
2.9044733e-09
4.8004272e-10
-2.8812232e-09
-3.3820757e-09
2.7998055e-09
3.2986179e-09
-5.3610899e-10
-4.0510775e-09
4.530262e-10
3.9653222e-09
-3.9889577e-10
-4.7578692e-09
3.1442566e-10
4.67007e-09
-2.6815208e-10
-7.6642429e-09
1.8247653e-10
7.5744874e-09
-1.6524656e-10
-1.0433587e-08
7.8581234e-11
1.0341583e-08
-1.095607e-10
-1.0575253e-08
2.2657031e-11
1.0481071e-08
-9.8424158e-11
-9.8380038e-09
1.4427418e-11
9.7504872e-09
-1.1536565e-10
-4.2823771e-09
3.6768949e-11
4.2074948e-09
-1.0848744e-08
-1.2480723e-08
1.1272725e-08
1.2761506e-08
-1.838308e-08
-2.168462e-08
1.86716e-08
2.1909741e-08
-1.5784723e-08
-1.9347112e-08
1.6127434e-08
1.9618104e-08
-7.907624e-09
-1.0639638e-08
8.2320768e-09
1.0959719e-08
-2.3839067e-10
-1.6013573e-09
5.5469318e-10
1.9247261e-09
1.4514071e-09
1.1134267e-09
-1.1774313e-09
-8.0864101e-10
-3.0048928e-10
-5.7243971e-10
5.2574577e-10
8.3934168e-10
-1.5220637e-09
-2.143778e-09
1.6997236e-09
2.3641666e-09
-1.2424425e-09
-2.2240999e-09
1.3749666e-09
2.3960917e-09
6.4683654e-10
-3.8944934e-10
-5.5501623e-10
5.1510662e-10
3.1425133e-09
2.1347335e-09
-3.0852154e-09
-2.0504941e-09
5.074724e-09
4.1350129e-09
-5.0453869e-09
-4.0857531e-09
6.086728e-09
5.6536641e-09
-6.0792575e-09
-5.6327592e-09
6.3935376e-09
5.9913588e-09
-6.4028238e-09
-5.9928107e-09
6.2813625e-09
5.6495655e-09
-6.3036382e-09
-5.6683282e-09
5.8348279e-09
5.1633398e-09
-5.8673341e-09
-5.1953396e-09
4.6842373e-09
4.175153e-09
-4.7246582e-09
-4.2171176e-09
4.2123691e-09
3.4147685e-09
-4.2587242e-09
-3.4639477e-09
3.5600039e-09
2.4772823e-09
-3.6106563e-09
-2.5312924e-09
2.9599652e-09
2.0465757e-09
-3.0135254e-09
-2.1034983e-09
2.8557078e-09
1.6829432e-09
-2.9109135e-09
-1.7412891e-09
2.7969135e-09
1.3825245e-09
-2.8526526e-09
-1.4410491e-09
2.5525829e-09
1.3595127e-09
-2.6079651e-09
-1.4171783e-09
2.5569761e-09
1.3830208e-09
-2.6112622e-09
-1.439016e-09
2.5792386e-09
1.666201e-09
-2.6318118e-09
-1.7199291e-09
2.8334195e-09
1.9792349e-09
-2.8838272e-09
-2.0303001e-09
2.8690265e-09
2.3152427e-09
-2.9169889e-09
-2.3634388e-09
3.1243592e-09
2.6683132e-09
-3.1697581e-09
-2.7136036e-09
2.929182e-09
2.8114346e-09
-2.9720482e-09
-2.8539312e-09
2.9456353e-09
5.1811792e-09
-2.9861349e-09
-5.2211193e-09
2.9490176e-09
3.1162139e-09
-2.9874337e-09
-3.1539373e-09
2.9372742e-09
5.4894132e-09
-2.9739859e-09
-5.5253403e-09
2.9090345e-09
5.6400866e-09
-2.9444944e-09
-5.6746952e-09
2.8635811e-09
5.7842352e-09
-2.8982894e-09
-5.818041e-09
2.8008161e-09
5.918904e-09
-2.8353028e-09
-5.9524432e-09
2.7212403e-09
6.0412674e-09
-2.7560569e-09
-6.0750812e-09
2.6259543e-09
8.3677184e-09
-2.6616506e-09
-8.4023396e-09
2.5166345e-09
6.2382378e-09
-2.5537362e-09
-6.2741779e-09
1.763842e-10
6.3075702e-09
-2.1538292e-10
-6.3453078e-09
4.6194141e-11
8.5731055e-09
-8.7540417e-11
-8.6130818e-09
2.1293109e-09
6.3748329e-09
-2.1734053e-09
-6.417446e-09
1.9911934e-09
6.3673636e-09
-2.0383814e-09
-6.4129611e-09
-3.6405756e-10
8.5477747e-09
3.1349142e-10
-8.5966499e-09
-4.9376806e-10
8.4746337e-09
4.3960535e-10
-8.5270225e-09
-6.1238317e-10
6.1443625e-09
5.544743e-10
-6.2004422e-09
-7.1510264e-10
5.9911076e-09
6.5337006e-10
-6.0509932e-09
-7.9715553e-10
5.7910066e-09
7.3159648e-10
-5.8547478e-09
-3.0731259e-09
3.3194496e-09
3.003815e-09
-3.3870305e-09
-8.8162899e-10
3.0084398e-09
8.0871907e-10
-3.0797771e-09
-8.7688588e-10
2.6320745e-09
8.0060659e-10
-2.7070213e-09
-3.057142e-09
-3.5482216e-11
2.9777939e-09
-4.2869565e-11
-2.9844457e-09
-5.6116174e-10
2.9023899e-09
4.7965549e-10
-2.8811022e-09
-3.3835862e-09
2.7967365e-09
3.299198e-09
-5.351364e-10
-4.0541306e-09
4.4884287e-10
3.9671215e-09
-3.9700842e-10
-6.981954e-09
3.0908941e-10
6.8925456e-09
-2.6541137e-10
-7.6715127e-09
1.7601628e-10
7.5797472e-09
-1.620599e-10
-1.04434e-08
7.0904699e-11
1.0348547e-08
-1.0669968e-10
-1.0586368e-08
1.4036244e-11
1.0488904e-08
-9.4313044e-11
-9.8463496e-09
9.7685531e-12
9.7596091e-09
-1.0787936e-10
-4.2834914e-09
3.9955023e-11
4.218594e-09
)
;

boundaryField
{
    movingWall
    {
        type            calculated;
        value           nonuniform List<scalar> 
16
(
-1.2946196e-10
-1.2023347e-10
-1.2946195e-10
-1.2023343e-10
-3.8231643e-09
-3.8198245e-09
-3.8231643e-09
-3.8198246e-09
5.3550201e-11
6.033664e-11
5.3550259e-11
6.0336686e-11
3.7533366e-09
3.7653162e-09
3.7533366e-09
3.7653162e-09
)
;
    }
    CPLReceiveMD
    {
        type            calculated;
        value           nonuniform List<scalar> 
16
(
1.2817806e-09
-1.012414e-08
-1.0950744e-08
-1.0115468e-08
-1.1230143e-08
-1.1682882e-08
-1.1744092e-08
-1.1691244e-08
1.1388187e-08
1.0759824e-08
1.0872685e-08
1.0758316e-08
1.2655799e-08
1.2041674e-08
1.2052459e-08
1.2034197e-08
)
;
    }
    streamwiseIn
    {
        type            cyclic;
    }
    streamwiseOut
    {
        type            cyclic;
    }
    front
    {
        type            cyclic;
    }
    back
    {
        type            cyclic;
    }
}


// ************************************************************************* //
