/*--------------------------------*- C++ -*----------------------------------*\
| =========                 |                                                 |
| \\      /  F ield         | OpenFOAM: The Open Source CFD Toolbox           |
|  \\    /   O peration     | Version:  3.0.x                                 |
|   \\  /    A nd           | Web:      www.OpenFOAM.org                      |
|    \\/     M anipulation  |                                                 |
\*---------------------------------------------------------------------------*/
FoamFile
{
    version     2.0;
    format      ascii;
    class       volScalarField;
    location    "475";
    object      sigmaxz;
}
// * * * * * * * * * * * * * * * * * * * * * * * * * * * * * * * * * * * * * //

dimensions      [0 2 -2 0 0 0 0];

internalField   nonuniform List<scalar> 
960
(
-1.5568177e-12
-1.6107278e-12
1.5568177e-12
1.6107279e-12
-1.5030929e-12
-2.9475953e-12
1.5030929e-12
2.9475958e-12
-1.3006971e-12
-3.1701364e-12
1.3006983e-12
3.1701376e-12
-1.1411022e-12
-2.850774e-12
1.1411022e-12
2.850774e-12
-9.585872e-13
-2.4154206e-12
9.5858836e-13
2.4154206e-12
-7.6023846e-13
-1.9612396e-12
7.6023729e-13
1.9612396e-12
-5.5131367e-13
-1.5354125e-12
5.5131367e-13
1.5354125e-12
-3.6102251e-13
-1.1776904e-12
3.6102251e-13
1.1776904e-12
-2.0876501e-13
-8.9568662e-13
2.0876501e-13
8.9568662e-13
-9.672862e-14
-6.7678695e-13
9.672862e-14
6.7678927e-13
-2.3559401e-14
-5.0065091e-13
2.3559401e-14
5.0065091e-13
1.511324e-14
-3.5131642e-13
-1.511324e-14
3.5131642e-13
2.8149469e-14
-2.2056916e-13
-2.8150633e-14
2.2057032e-13
2.7673733e-14
-1.1268517e-13
-2.7673733e-14
1.126875e-13
2.2827771e-14
-3.9797469e-14
-2.2825443e-14
3.9797469e-14
1.7423411e-14
-2.8914748e-15
-1.7423411e-14
2.8914748e-15
1.2178493e-14
8.7730698e-15
-1.2178493e-14
-8.7730698e-15
6.4806077e-15
7.3042314e-15
-6.4806077e-15
-7.3042314e-15
1.9754553e-15
4.8558921e-15
-1.9754553e-15
-4.8558921e-15
4.9028132e-16
2.5573935e-15
-4.9028132e-16
-2.5573935e-15
4.7312197e-16
-3.7036778e-16
-4.7312197e-16
3.7036778e-16
7.1102276e-16
-2.69747e-15
-7.1102276e-16
2.69747e-15
9.3945011e-16
-3.1247803e-15
-9.3945011e-16
3.1247803e-15
1.0886349e-15
-3.0016591e-15
-1.0886349e-15
3.0016591e-15
1.1190597e-15
-2.6563584e-15
-1.1237159e-15
2.6563584e-15
1.0648099e-15
-2.2175452e-15
-1.0648099e-15
2.2175452e-15
9.435627e-16
-1.7552814e-15
-9.435627e-16
1.7552814e-15
7.848429e-16
-1.336535e-15
-7.848429e-16
1.336535e-15
6.2311064e-16
-9.9642813e-16
-6.2311064e-16
9.9642813e-16
4.7416052e-16
-7.3427791e-16
-4.7416052e-16
7.3427791e-16
3.5101433e-16
-5.290433e-16
-3.5101433e-16
5.290433e-16
2.5364394e-16
-3.7262862e-16
-2.5364394e-16
3.7262862e-16
1.7863446e-16
-2.5519444e-16
-1.6932219e-16
2.5519444e-16
1.2340433e-16
-1.6576179e-16
-1.2340433e-16
1.6576179e-16
8.4614554e-17
-7.3336696e-17
-8.4614554e-17
8.2648968e-17
5.8345275e-17
-2.1439697e-17
-4.9033003e-17
2.1439697e-17
4.1862149e-17
-1.4023564e-17
-4.1862149e-17
1.4023564e-17
3.1559384e-17
-1.3520683e-17
-2.2247113e-17
1.3520683e-17
2.4875644e-17
-1.3411469e-17
-2.4875644e-17
1.3411469e-17
2.159473e-17
-3.7597387e-18
-2.159473e-17
1.307201e-17
2.1987481e-17
-3.255362e-18
-2.1987481e-17
1.2567634e-17
3.2526022e-17
-2.8752394e-18
-2.321375e-17
1.2187511e-17
2.5392313e-17
-1.2313577e-17
-2.5392313e-17
1.2313577e-17
2.8032932e-17
-1.3018251e-17
-2.8032932e-17
1.3018251e-17
2.9670403e-17
-1.2782334e-17
-2.9670403e-17
1.2782334e-17
2.9219694e-17
-1.1665132e-17
-2.9219694e-17
1.1665132e-17
2.7525779e-17
-9.0480205e-18
-2.7525779e-17
9.0480205e-18
2.5857523e-17
-5.9637385e-18
-2.5857523e-17
2.4588282e-17
2.477231e-17
-3.0916466e-18
-2.477231e-17
3.0916466e-18
2.3709995e-17
1.9181896e-17
-2.3709995e-17
-5.5735256e-19
2.1824171e-17
3.0361958e-18
-2.1824171e-17
-3.0361958e-18
1.7921658e-17
3.5408397e-18
-1.7921658e-17
-3.5408397e-18
1.2067178e-17
4.3480054e-18
-1.2067178e-17
-4.3480054e-18
8.4634532e-18
5.4077569e-18
-8.4634532e-18
-5.4077569e-18
-1.189588e-17
2.6882125e-17
-6.7286633e-18
-8.2575814e-18
6.2259102e-18
9.8196681e-18
-6.2259102e-18
-9.8196681e-18
6.1054399e-18
9.999828e-18
-6.1054399e-18
-9.999828e-18
7.0502258e-18
2.7824675e-17
-7.0502258e-18
-9.2001315e-18
7.491813e-18
2.5473308e-17
-7.491813e-18
-6.8487647e-18
4.2705066e-18
2.1355538e-17
-4.2705066e-18
-2.7309948e-18
-1.1459599e-12
3.6854534e-10
1.7789361e-11
-3.8518874e-10
-5.24532e-12
7.5866015e-10
5.2453194e-12
-7.5866015e-10
-6.415041e-12
6.9930623e-10
1.7284906e-10
-8.6574025e-10
-5.9616531e-12
4.4258628e-10
5.9616531e-12
-4.4258628e-10
-4.9479013e-12
3.5904756e-10
4.9479002e-12
-5.2548157e-10
-3.9593487e-12
2.9593083e-10
3.9593487e-12
-2.9593083e-10
-3.1709058e-12
2.5262724e-10
3.1709058e-12
-2.5262724e-10
-2.5455716e-12
5.7417977e-11
2.5455716e-12
-5.7417976e-11
-2.0290304e-12
3.8332004e-11
1.6846304e-10
-2.0476602e-10
-1.5968295e-12
1.9206645e-10
1.5968307e-12
-2.5632434e-11
-1.2356377e-12
1.8359114e-10
1.2356377e-12
-1.7157121e-11
-9.3970109e-13
1.14904e-11
9.3970109e-13
-1.14904e-11
-7.0315192e-13
7.6902915e-12
7.0315192e-13
-7.6902915e-12
-5.2192625e-13
5.1349068e-12
5.2192625e-13
-5.1349068e-12
-3.8996871e-13
3.4219261e-12
3.8996871e-13
-3.4219261e-12
-2.9744322e-13
2.2788388e-12
2.9744322e-13
-2.2788388e-12
-2.3450386e-13
1.5158316e-12
2.3450619e-13
-1.5158316e-12
-1.8784675e-13
1.0031301e-12
1.8784675e-13
-1.0031301e-12
-1.4335844e-13
6.5904841e-13
1.4335844e-13
-6.5904841e-13
-1.0150494e-13
4.2757514e-13
1.0150494e-13
-4.2757514e-13
-6.968742e-14
2.7438252e-13
6.968742e-14
-2.7438252e-13
-4.6989648e-14
1.7694765e-13
4.6989648e-14
-1.7694765e-13
-3.111201e-14
1.1429636e-13
3.111201e-14
-1.1429636e-13
-2.0274492e-14
7.3481982e-14
2.0274492e-14
-7.3481982e-14
-1.3058796e-14
4.7004727e-14
1.3058796e-14
-4.7004727e-14
-8.3443191e-15
2.9838124e-14
8.3443191e-15
-2.9838124e-14
-5.3070981e-15
1.8787255e-14
5.3070981e-15
-1.8787255e-14
-3.3763803e-15
1.17323e-14
3.3763803e-15
-1.17323e-14
-2.1401118e-15
7.2689224e-15
2.1401118e-15
-7.2689224e-15
-1.3624405e-15
4.4730972e-15
1.3624405e-15
-4.4730972e-15
-8.6333318e-16
2.7224827e-15
8.6333318e-16
-2.7224827e-15
-5.4247336e-16
1.6325762e-15
5.4247336e-16
-1.6325762e-15
-3.3889294e-16
9.5820723e-16
3.3889294e-16
-9.5820723e-16
-2.1191045e-16
5.3110925e-16
2.1191045e-16
-5.3110925e-16
-1.3333029e-16
2.0692575e-16
1.3333029e-16
-2.0692575e-16
-8.5988134e-17
7.4845376e-18
8.5988134e-17
-7.4845376e-18
-5.8103945e-17
-2.2109095e-17
5.8103945e-17
2.2109095e-17
-4.1829861e-17
-1.9301519e-17
4.1829861e-17
1.9301519e-17
-3.2695962e-17
-1.2884323e-17
3.2695962e-17
1.2884323e-17
-2.6790051e-17
-6.4573069e-18
2.6790051e-17
6.4573069e-18
-2.3508472e-17
-2.7894341e-18
2.3508472e-17
2.7894341e-18
-2.3801562e-17
-1.3384623e-18
2.3801562e-17
1.3384623e-18
-2.5316944e-17
-1.2595726e-18
2.5316944e-17
1.2595726e-18
-2.6844475e-17
-2.1177064e-18
2.6844475e-17
2.1177064e-18
-2.763482e-17
-4.9128492e-18
2.763482e-17
4.9128492e-18
-2.840288e-17
-7.7109878e-18
2.840288e-17
7.7109878e-18
-2.8049807e-17
8.0649877e-18
2.8049807e-17
1.0559556e-17
-2.5019093e-17
-1.2615831e-17
2.5019093e-17
-6.0087121e-18
-2.1212481e-17
-1.4320565e-17
2.1212481e-17
1.4320565e-17
-1.8058041e-17
-1.580494e-17
1.8058041e-17
1.580494e-17
-1.7061634e-17
-1.8386165e-17
1.7061634e-17
1.8386165e-17
-1.5652803e-17
-1.8692256e-17
1.5652803e-17
1.8692256e-17
-1.4355513e-17
-1.9414015e-17
1.4355513e-17
1.9414015e-17
-1.2250827e-17
-2.0011651e-17
1.2250827e-17
2.0011651e-17
7.0048796e-18
-2.049694e-17
1.1619664e-17
2.049694e-17
-1.0502065e-17
-1.9732096e-17
1.0502065e-17
1.9732096e-17
-1.1122141e-17
-1.7268118e-17
1.1122141e-17
1.7268118e-17
-1.0865412e-17
-1.2394293e-17
1.0865412e-17
1.2394293e-17
-7.5830266e-18
-6.6371821e-18
7.5830266e-18
6.6371821e-18
-2.9154884e-18
9.2484053e-20
2.9154884e-18
-9.2484053e-20
1.5568177e-12
1.6107278e-12
-1.5568177e-12
-1.6107278e-12
1.5030929e-12
2.9475953e-12
-1.5030929e-12
-2.9475958e-12
1.3006983e-12
3.1701376e-12
-1.3006983e-12
-3.1701387e-12
1.1411022e-12
2.850774e-12
-1.1411022e-12
-2.850774e-12
9.5858836e-13
2.4154206e-12
-9.5858836e-13
-2.4154217e-12
7.6023729e-13
1.9612396e-12
-7.6023729e-13
-1.9612396e-12
5.5131367e-13
1.5354114e-12
-5.5131367e-13
-1.5354125e-12
3.6102251e-13
1.1776893e-12
-3.6102251e-13
-1.1776904e-12
2.0876501e-13
8.9568662e-13
-2.0876501e-13
-8.9568662e-13
9.672862e-14
6.7678811e-13
-9.672862e-14
-6.7678927e-13
2.3559401e-14
5.0064975e-13
-2.3559401e-14
-5.0065091e-13
-1.511324e-14
3.5131642e-13
1.511324e-14
-3.5131642e-13
-2.8150633e-14
2.2057034e-13
2.8150633e-14
-2.2057034e-13
-2.7673733e-14
1.126875e-13
2.7673733e-14
-1.126875e-13
-2.282546e-14
3.9797469e-14
2.282546e-14
-3.9797469e-14
-1.7423411e-14
2.8914748e-15
1.7423411e-14
-2.8914748e-15
-1.2180821e-14
-8.7730698e-15
1.2178493e-14
8.7730698e-15
-6.4806077e-15
-7.304233e-15
6.4806077e-15
7.304233e-15
-1.9754553e-15
-4.8558938e-15
1.9754553e-15
4.8558938e-15
-4.9028132e-16
-2.5573918e-15
4.9028132e-16
2.5573918e-15
-4.7312197e-16
3.7036761e-16
4.7312197e-16
-3.7036761e-16
-7.1102276e-16
2.69747e-15
7.1102276e-16
-2.69747e-15
-9.3945011e-16
3.124782e-15
9.3945011e-16
-3.124782e-15
-1.0886349e-15
3.0016608e-15
1.0886349e-15
-3.0016608e-15
-1.1237175e-15
2.6563601e-15
1.1237175e-15
-2.6563601e-15
-1.0648115e-15
2.2175452e-15
1.0648115e-15
-2.2175452e-15
-9.435627e-16
1.7552814e-15
9.435627e-16
-1.7552814e-15
-7.848429e-16
1.336535e-15
7.848429e-16
-1.336535e-15
-6.2310898e-16
9.964283e-16
6.2310898e-16
-9.964283e-16
-4.7416052e-16
7.3427791e-16
4.7416052e-16
-7.3427791e-16
-3.5101433e-16
5.2904314e-16
3.5101433e-16
-5.2904314e-16
-2.5364394e-16
3.7262862e-16
2.5364394e-16
-3.7262862e-16
-1.7863446e-16
2.5519444e-16
1.7863446e-16
-2.5519444e-16
-1.2340433e-16
1.6576179e-16
1.2340433e-16
-1.6576179e-16
-8.4614554e-17
8.2648968e-17
8.4614554e-17
-8.2648968e-17
-5.8345275e-17
2.1439697e-17
5.8345275e-17
-2.1439697e-17
-4.1861983e-17
1.4023564e-17
4.1861983e-17
-1.4023564e-17
-3.1559384e-17
1.3520683e-17
3.1559384e-17
-1.3520683e-17
-2.4875644e-17
1.3411469e-17
2.4875644e-17
-1.3411469e-17
-2.1594747e-17
1.3071994e-17
2.1594747e-17
-1.3071994e-17
-2.1987465e-17
1.2567632e-17
2.1987465e-17
-1.2567632e-17
-2.321375e-17
1.2187512e-17
2.321375e-17
-1.2187512e-17
-2.5392312e-17
1.2313576e-17
2.5392312e-17
-1.2313576e-17
-2.8032934e-17
1.3018251e-17
2.8032934e-17
-1.3018251e-17
-2.9670403e-17
1.2782335e-17
2.9670403e-17
-1.2782335e-17
-2.9219693e-17
3.0289676e-17
2.9219693e-17
-1.1665132e-17
-2.7525778e-17
-9.5765232e-18
2.7525778e-17
-9.0480205e-18
-2.5857522e-17
5.9637385e-18
2.5857522e-17
-5.9637385e-18
-2.4772309e-17
3.0916466e-18
2.4772309e-17
-3.0916466e-18
-2.3709996e-17
-5.573509e-19
2.3709996e-17
5.573509e-19
-2.182417e-17
-3.0361942e-18
2.182417e-17
3.0361942e-18
-1.7921658e-17
-3.5408396e-18
1.7921658e-17
3.5408396e-18
-1.2067178e-17
-4.3480054e-18
1.2067178e-17
4.3480054e-18
-8.4634529e-18
-5.4077567e-18
8.4634529e-18
5.4077567e-18
-6.7286629e-18
-8.2575817e-18
6.7286629e-18
8.2575817e-18
-6.2259099e-18
-9.819668e-18
6.2259099e-18
9.819668e-18
-6.1054399e-18
-9.9998281e-18
6.1054399e-18
9.9998281e-18
-7.0502259e-18
-9.2001315e-18
7.0502259e-18
9.2001315e-18
-7.4918131e-18
-6.848765e-18
7.4918131e-18
6.848765e-18
-4.2705067e-18
-2.7309951e-18
4.2705067e-18
2.7309951e-18
1.1459598e-12
-3.6854534e-10
-1.7789361e-11
3.8518874e-10
5.24532e-12
-7.5866015e-10
-5.2453194e-12
7.5866015e-10
6.415041e-12
-6.9930623e-10
-1.7284906e-10
8.6574025e-10
5.9616531e-12
-4.4258628e-10
-5.9616531e-12
4.4258628e-10
4.9479013e-12
-3.5904756e-10
-4.9479002e-12
5.2548157e-10
3.9593499e-12
-2.9593083e-10
-3.9593487e-12
2.9593083e-10
3.170907e-12
-2.5262723e-10
-3.1709058e-12
2.5262724e-10
2.5455728e-12
-5.7417976e-11
-2.5455716e-12
5.7417977e-11
2.0290315e-12
-3.8332004e-11
-1.6846304e-10
2.0476602e-10
1.5968307e-12
-1.9206645e-10
-1.5968307e-12
2.5632434e-11
1.2356377e-12
-1.8359113e-10
-1.2356377e-12
1.7157122e-11
9.3970109e-13
-1.14904e-11
-9.3970109e-13
1.14904e-11
7.0315309e-13
-7.6902915e-12
-7.0315192e-13
7.6902915e-12
5.2192625e-13
-5.1349068e-12
-5.2192625e-13
5.1349068e-12
3.8996871e-13
-3.4219261e-12
-3.8996871e-13
3.4219261e-12
2.9744322e-13
-2.2788388e-12
-2.9744322e-13
2.2788412e-12
2.3450852e-13
-1.5158316e-12
-2.3450619e-13
1.5158316e-12
1.8784908e-13
-1.0031301e-12
-1.8784675e-13
1.0031301e-12
1.4336077e-13
-6.5904841e-13
-1.4335844e-13
6.5904841e-13
1.0150727e-13
-4.2757514e-13
-1.0150494e-13
4.2757747e-13
6.968742e-14
-2.7438252e-13
-6.968742e-14
2.7438252e-13
4.6991976e-14
-1.7694765e-13
-4.6989648e-14
1.7694998e-13
3.111201e-14
-1.1429636e-13
-3.111201e-14
1.1429636e-13
2.0274492e-14
-7.3481982e-14
-2.0274492e-14
7.3481982e-14
1.3063452e-14
-4.7004727e-14
-1.3058796e-14
4.7009383e-14
8.3443191e-15
-2.9838124e-14
-8.3443191e-15
2.9838124e-14
5.3117542e-15
-1.8787255e-14
-5.3070981e-15
1.8787255e-14
3.3810364e-15
-1.17323e-14
-3.3763803e-15
1.1736956e-14
2.1447679e-15
-7.2689224e-15
-2.1401118e-15
7.2689224e-15
1.3624405e-15
-4.4730972e-15
-1.3577844e-15
4.4777534e-15
8.6798932e-16
-2.7224827e-15
-8.5867704e-16
2.7224827e-15
5.4247336e-16
-1.6325762e-15
-5.4247336e-16
1.6325762e-15
3.3889294e-16
-9.5820723e-16
-3.3889294e-16
9.5820723e-16
2.1191045e-16
-5.3110925e-16
-2.1191045e-16
5.3110925e-16
1.3333029e-16
-2.0692741e-16
-1.3333029e-16
2.0692741e-16
9.5300406e-17
-7.4845376e-18
-8.5988134e-17
7.4845376e-18
5.8103779e-17
2.2109095e-17
-4.8791507e-17
-1.2796823e-17
5.1142133e-17
1.9301519e-17
-4.1829861e-17
-9.9892473e-18
3.2695962e-17
1.2884323e-17
-3.2695962e-17
-1.2884323e-17
2.6790051e-17
6.4574733e-18
-1.7477779e-17
2.8547985e-18
2.3508472e-17
2.7894341e-18
-2.3508472e-17
-2.7894341e-18
2.3801562e-17
1.3384623e-18
-2.3801562e-17
-1.3384623e-18
3.4629216e-17
1.2595726e-18
-2.5316944e-17
-1.2595726e-18
2.6844475e-17
2.1177064e-18
-2.6844475e-17
-2.1177064e-18
2.763482e-17
4.9128492e-18
-2.763482e-17
-4.9128492e-18
2.8402897e-17
-1.0913556e-17
-2.8402897e-17
-7.7109878e-18
2.8049807e-17
1.0559573e-17
-2.8049807e-17
8.0649711e-18
2.501911e-17
1.2615848e-17
-2.501911e-17
6.0086955e-18
3.9837041e-17
1.4320565e-17
-2.1212498e-17
-1.4320565e-17
3.6682584e-17
1.580494e-17
-1.8058041e-17
-1.580494e-17
1.7061634e-17
1.8386165e-17
-1.7061634e-17
-1.8386165e-17
1.5652803e-17
1.8692259e-17
-1.5652803e-17
-6.7715536e-20
1.4355513e-17
1.9414015e-17
-1.4355513e-17
-7.8947162e-19
1.2250827e-17
2.0011651e-17
6.3737169e-18
-2.0011651e-17
1.1619666e-17
2.0496941e-17
-1.1619666e-17
-1.8723978e-18
1.0502066e-17
1.9732094e-17
-1.0502066e-17
-1.9732094e-17
1.1122144e-17
1.726812e-17
7.5023992e-18
-1.726812e-17
2.9489957e-17
1.2394291e-17
-1.0865413e-17
6.2302524e-18
7.5830266e-18
6.6371821e-18
1.1041517e-17
1.1987361e-17
2.9154889e-18
-9.2483887e-20
-2.9154889e-18
1.8717027e-17
)
;

boundaryField
{
    movingWall
    {
        type            calculated;
        value           nonuniform List<scalar> 
16
(
4.2705066e-18
-2.9154884e-18
-4.2705067e-18
2.9154889e-18
2.1355538e-17
9.2484053e-20
-2.7309951e-18
-9.2483887e-20
-4.2705066e-18
2.9154884e-18
4.2705067e-18
-2.9154889e-18
-2.7309948e-18
-9.2484053e-20
2.7309951e-18
1.8717027e-17
)
;
    }
    CPLReceiveMD
    {
        type            calculated;
        value           nonuniform List<scalar> 
16
(
-1.5568177e-12
-1.1459599e-12
1.5568177e-12
1.1459598e-12
-1.6107278e-12
3.6854534e-10
1.6107278e-12
-3.6854534e-10
1.5568177e-12
1.7789361e-11
-1.5568177e-12
-1.7789361e-11
1.6107279e-12
-3.8518874e-10
-1.6107278e-12
3.8518874e-10
)
;
    }
    streamwiseIn
    {
        type            cyclic;
    }
    streamwiseOut
    {
        type            cyclic;
    }
    front
    {
        type            cyclic;
    }
    back
    {
        type            cyclic;
    }
}


// ************************************************************************* //
