/*--------------------------------*- C++ -*----------------------------------*\
| =========                 |                                                 |
| \\      /  F ield         | OpenFOAM: The Open Source CFD Toolbox           |
|  \\    /   O peration     | Version:  3.0.x                                 |
|   \\  /    A nd           | Web:      www.OpenFOAM.org                      |
|    \\/     M anipulation  |                                                 |
\*---------------------------------------------------------------------------*/
FoamFile
{
    version     2.0;
    format      ascii;
    class       volVectorField;
    location    "475";
    object      U;
}
// * * * * * * * * * * * * * * * * * * * * * * * * * * * * * * * * * * * * * //

dimensions      [0 1 -1 0 0 0 0];

internalField   nonuniform List<vector> 
960
(
(-0.0030718068 -4.9650429e-09 -1.7932088e-11)
(-0.0030718451 1.7143024e-09 -9.1064908e-12)
(-0.0030718437 -2.0743765e-09 -2.7609964e-11)
(-0.0030718103 -2.5497589e-09 2.4747281e-13)
(0.012463521 -2.4982866e-09 -1.7869911e-11)
(0.012463445 7.5353011e-09 -2.030823e-11)
(0.012463449 -7.616093e-09 -3.5580208e-11)
(0.012463512 -8.8188469e-09 -1.1277066e-11)
(0.018328258 5.9956004e-09 -1.9170959e-11)
(0.018328193 1.570583e-08 -2.4430966e-11)
(0.018328196 -1.4811573e-08 -3.8218373e-11)
(0.018328249 -1.7365725e-08 -1.6615867e-11)
(0.020178266 1.2772069e-08 -2.1051067e-11)
(0.020178227 2.1286086e-08 -2.563326e-11)
(0.020178229 -1.9518477e-08 -3.8179621e-11)
(0.020178258 -2.3358741e-08 -1.8777076e-11)
(0.020809447 1.4794681e-08 -2.1648056e-11)
(0.020809438 2.2859294e-08 -2.535708e-11)
(0.02080944 -2.0662048e-08 -3.6160838e-11)
(0.020809444 -2.5373814e-08 -1.959751e-11)
(0.021306535 1.4587895e-08 -2.0957614e-11)
(0.021306536 2.1984527e-08 -2.4008356e-11)
(0.021306537 -1.9786334e-08 -3.2741501e-11)
(0.021306535 -2.4851211e-08 -1.9440556e-11)
(0.021971435 1.4612223e-08 -1.9335057e-11)
(0.021971433 2.1327002e-08 -2.1766509e-11)
(0.021971433 -1.9287494e-08 -2.856041e-11)
(0.021971436 -2.444169e-08 -1.8454003e-11)
(0.022831517 1.5391618e-08 -1.7077936e-11)
(0.022831512 2.1716407e-08 -1.9022915e-11)
(0.02283151 -1.968406e-08 -2.4153956e-11)
(0.022831517 -2.4989179e-08 -1.6853752e-11)
(0.023866043 1.6352079e-08 -1.4488895e-11)
(0.023866039 2.2630858e-08 -1.613941e-11)
(0.023866036 -2.0364505e-08 -1.9870527e-11)
(0.023866043 -2.5988502e-08 -1.4885069e-11)
(0.025073739 1.678541e-08 -1.1858041e-11)
(0.02507374 2.3246473e-08 -1.3362058e-11)
(0.025073738 -2.0582993e-08 -1.5924446e-11)
(0.025073738 -2.6631454e-08 -1.2780875e-11)
(0.026475809 1.6329491e-08 -9.4263835e-12)
(0.026475818 2.3056415e-08 -1.0872933e-11)
(0.026475816 -1.9953406e-08 -1.2434488e-11)
(0.026475809 -2.6425715e-08 -1.0731379e-11)
(0.028103045 1.5014225e-08 -7.3393644e-12)
(0.028103061 2.1992882e-08 -8.7680395e-12)
(0.028103058 -1.8490941e-08 -9.4502095e-12)
(0.028103045 -2.531621e-08 -8.8588457e-12)
(0.029984967 1.3107259e-08 -5.6450358e-12)
(0.029984988 2.0289987e-08 -7.0545405e-12)
(0.029984985 -1.6454297e-08 -6.9703077e-12)
(0.029984969 -2.3547438e-08 -7.2236804e-12)
(0.03214464 1.094019e-08 -4.2976395e-12)
(0.032144663 1.8293064e-08 -5.6748062e-12)
(0.032144659 -1.4169436e-08 -4.9747096e-12)
(0.032144642 -2.1472612e-08 -5.8410807e-12)
(0.034597832 8.7929296e-09 -3.190951e-12)
(0.034597855 1.6317554e-08 -4.5601303e-12)
(0.034597851 -1.19128e-08 -3.4300696e-12)
(0.034597835 -1.9412784e-08 -4.6972744e-12)
(0.037354402 6.8465416e-09 -2.2537446e-12)
(0.037354424 1.4581453e-08 -3.6597882e-12)
(0.037354418 -9.8635722e-09 -2.2711177e-12)
(0.037354405 -1.7589744e-08 -3.7644748e-12)
(0.040420293 5.184647e-09 -1.493861e-12)
(0.040420313 1.319495e-08 -2.9398164e-12)
(0.040420307 -8.1043019e-09 -1.441149e-12)
(0.040420297 -1.6116197e-08 -3.0129895e-12)
(0.043799335 3.8175893e-09 -9.0508351e-13)
(0.043799353 1.2180889e-08 -2.3731973e-12)
(0.043799346 -6.6445182e-09 -8.6119686e-13)
(0.043799339 -1.5016603e-08 -2.4121353e-12)
(0.047494532 2.7105988e-09 -4.8919513e-13)
(0.047494549 1.1504981e-08 -1.9220891e-12)
(0.047494541 -5.4490397e-09 -4.6001905e-13)
(0.047494537 -1.4257288e-08 -1.9339584e-12)
(0.051508874 1.8077022e-09 -2.0692069e-13)
(0.05150889 1.1102536e-08 -1.5503695e-12)
(0.051508882 -4.4617817e-09 -1.9155488e-13)
(0.051508879 -1.3773623e-08 -1.5533153e-12)
(0.055845748 1.0483151e-09 -2.3444189e-14)
(0.055845764 1.0897344e-08 -1.2464676e-12)
(0.055845755 -3.6220484e-09 -2.5669502e-14)
(0.055845754 -1.3489798e-08 -1.2493103e-12)
(0.060509105 3.7667274e-10 8.7844241e-14)
(0.060509121 1.0814128e-08 -1.0008179e-12)
(0.060509111 -2.8739093e-09 7.1636797e-14)
(0.060509111 -1.3331045e-08 -1.00509e-12)
(0.06550346 -2.5355345e-10 1.479786e-13)
(0.065503477 1.0785242e-08 -8.0170521e-13)
(0.065503466 -2.1710339e-09 1.2920371e-13)
(0.065503468 -1.3230009e-08 -8.0734979e-13)
(0.070833819 -8.7778263e-10 1.7331154e-13)
(0.070833837 1.0753015e-08 -6.4002903e-13)
(0.070833826 -1.4782017e-09 1.5527641e-13)
(0.070833828 -1.3129249e-08 -6.4656997e-13)
(0.076505549 -1.5208069e-09 1.7593789e-13)
(0.076505568 1.0670023e-08 -5.0866708e-13)
(0.076505556 -7.7073222e-10 1.5997746e-13)
(0.076505559 -1.298153e-08 -5.154188e-13)
(0.082524237 -2.1978653e-09 1.6482897e-13)
(0.082524258 1.0498328e-08 -4.0199037e-13)
(0.082524244 -3.3394823e-11 1.515051e-13)
(0.082524248 -1.2749032e-08 -4.0838816e-13)
(0.088895547 -2.9159865e-09 1.4627825e-13)
(0.08889557 1.0208342e-08 -3.1552325e-13)
(0.088895555 7.4092975e-10 1.3573184e-13)
(0.08889556 -1.2402188e-08 -3.2119254e-13)
(0.095625072 -3.6753425e-09 1.246541e-13)
(0.095625098 9.777661e-09 -2.4568135e-13)
(0.095625083 1.5526041e-09 1.1662368e-13)
(0.095625087 -1.191851e-08 -2.5039699e-13)
(0.1027182 -4.4704758e-09 1.0279465e-13)
(0.10271823 9.1900578e-09 -1.8956451e-13)
(0.10271821 2.3964602e-09 9.6807724e-14)
(0.10271822 -1.1281575e-08 -1.933084e-13)
(0.11017996 -5.2913899e-09 8.2393438e-14)
(0.11017999 8.4346671e-09 -1.4478391e-13)
(0.11017998 3.2628865e-09 7.7981612e-14)
(0.11017998 -1.0480209e-08 -1.4763285e-13)
(0.11801494 -6.1245116e-09 6.43479e-14)
(0.11801497 7.5053615e-09 -1.0934072e-13)
(0.11801495 4.138779e-09 6.1169203e-14)
(0.11801496 -9.5078771e-09 -1.1144975e-13)
(0.12622709 -6.9535584e-09 4.9045982e-14)
(0.12622713 6.40028e-09 -8.1557325e-14)
(0.12622711 5.0083907e-09 4.6807085e-14)
(0.12622712 -8.3622223e-09 -8.3081316e-14)
(0.1348197 -7.760335e-09 3.6498477e-14)
(0.13481974 5.1214746e-09 -6.0016783e-14)
(0.13481972 5.854109e-09 3.496517e-14)
(0.13481973 -7.0447313e-09 -6.1090088e-14)
(0.14379521 -8.5254824e-09 2.649706e-14)
(0.14379525 3.6746409e-09 -4.351988e-14)
(0.14379523 6.6571879e-09 2.5501099e-14)
(0.14379524 -5.5604849e-09 -4.4261341e-14)
(0.15315517 -9.2291867e-09 1.863693e-14)
(0.15315521 2.0689106e-09 -3.105845e-14)
(0.15315519 7.3984492e-09 1.8140343e-14)
(0.1531552 -3.9179695e-09 -3.1566847e-14)
(0.16290012 -9.8518934e-09 1.2632896e-14)
(0.16290016 3.1668617e-10 -2.1784475e-14)
(0.16290014 8.0589665e-09 1.2504078e-14)
(0.16290015 -2.128932e-09 -2.2135036e-14)
(0.17302952 -1.0374983e-08 8.2361108e-15)
(0.17302957 -1.5664902e-09 -1.4992411e-14)
(0.17302955 8.6207188e-09 8.1518518e-15)
(0.17302956 -2.082668e-10 -1.5243935e-14)
(0.1835417 -1.0781408e-08 5.1136304e-15)
(0.18354174 -3.5620299e-09 -1.0099565e-14)
(0.18354172 9.0672341e-09 5.0323929e-15)
(0.18354173 1.8260652e-09 -1.0289186e-14)
(0.19443374 -1.1056341e-08 2.9705297e-15)
(0.19443378 -5.6483619e-09 -6.6396057e-15)
(0.19443376 9.3842269e-09 2.8899484e-15)
(0.19443378 3.9530841e-09 -6.7890682e-15)
(0.20570149 -1.1187785e-08 1.552384e-15)
(0.20570154 -7.800966e-09 -4.2388205e-15)
(0.20570152 9.5601984e-09 1.4738423e-15)
(0.20570154 6.1488129e-09 -4.36857e-15)
(0.21733951 -1.1167158e-08 6.5631518e-16)
(0.21733955 -9.9923569e-09 -2.6045401e-15)
(0.21733953 9.5870088e-09 5.8080397e-16)
(0.21733955 8.3862567e-09 -2.7366494e-15)
(0.22934099 -1.0989831e-08 1.2544621e-16)
(0.22934103 -1.2192011e-08 -1.5219673e-15)
(0.22934101 9.4604119e-09 5.2218924e-17)
(0.22934103 1.0635318e-08 -1.6614445e-15)
(0.24169779 -1.0655614e-08 -1.5745618e-16)
(0.24169784 -1.4366216e-08 -8.2513527e-16)
(0.24169782 9.1805378e-09 -2.3144092e-16)
(0.24169784 1.2862646e-08 -9.7770212e-16)
(0.25440042 -1.0169179e-08 -2.8107272e-16)
(0.25440047 -1.6477831e-08 -3.9149097e-16)
(0.25440045 8.7523084e-09 -3.5929141e-16)
(0.25440047 1.5031387e-08 -5.5992368e-16)
(0.26743802 -9.5403886e-09 -3.1187743e-16)
(0.26743806 -1.8485918e-08 -1.3566368e-16)
(0.26743804 8.1857649e-09 -3.8867864e-16)
(0.26743807 1.7100816e-08 -3.1393495e-16)
(0.28079836 -8.7845139e-09 -2.9583187e-16)
(0.2807984 -2.0345234e-08 4.3754756e-18)
(0.28079838 7.4962798e-09 -3.659205e-16)
(0.28079841 1.9025827e-08 -1.7118776e-16)
(0.2944679 -7.9222961e-09 -2.5756917e-16)
(0.29446794 -2.2005571e-08 7.0145335e-17)
(0.29446792 6.7046186e-09 -3.1193318e-16)
(0.29446795 2.0756265e-08 -9.5240203e-17)
(0.3084318 -6.9798134e-09 -2.1520661e-16)
(0.30843184 -2.3410949e-08 9.8166595e-17)
(0.30843181 5.8368004e-09 -2.5103906e-16)
(0.30843184 2.2236128e-08 -5.7195415e-17)
(0.32267394 -5.9880773e-09 -1.7376086e-16)
(0.32267398 -2.4498731e-08 1.0617097e-16)
(0.32267395 4.9236928e-09 -1.9233667e-16)
(0.32267398 2.3402674e-08 -4.2670661e-17)
(0.337177 -4.9822688e-09 -1.456951e-16)
(0.33717704 -2.5198815e-08 1.0797192e-16)
(0.33717701 4.0002472e-09 -1.4234631e-16)
(0.33717704 2.4185618e-08 -3.448691e-17)
(0.35192251 -4.0004897e-09 -1.198644e-16)
(0.35192254 -2.543321e-08 9.9752789e-17)
(0.35192251 3.104253e-09 -1.0162176e-16)
(0.35192255 2.4506713e-08 -3.1375278e-17)
(0.36689089 -3.0818664e-09 -9.3695008e-17)
(0.36689092 -2.511663e-08 8.2156961e-17)
(0.36689089 2.2744493e-09 -7.2420272e-17)
(0.36689093 2.4280355e-08 -2.5523301e-17)
(0.38206158 -2.2638119e-09 -7.6550517e-17)
(0.3820616 -2.415942e-08 6.0715274e-17)
(0.38206157 1.5477978e-09 -5.0426017e-17)
(0.38206161 2.3416524e-08 -1.1789006e-17)
(0.39741306 -1.578211e-09 -6.9132139e-17)
(0.39741308 -2.2475524e-08 5.092319e-17)
(0.39741305 9.5569738e-10 -3.6640242e-17)
(0.39741308 2.1828785e-08 7.1486177e-20)
(0.41292298 -1.0462928e-09 -7.6147937e-17)
(0.412923 -1.9998993e-08 5.1503973e-17)
(0.41292297 5.1896313e-10 -2.6533191e-17)
(0.412923 1.9450851e-08 1.1075559e-17)
(0.42856827 -6.7230705e-10 -8.5123995e-17)
(0.42856828 -1.6709954e-08 5.9302917e-17)
(0.42856825 2.4162832e-10 -2.6123627e-17)
(0.42856828 1.6262611e-08 2.1895238e-17)
(0.4443252 -4.3731145e-10 -8.8212277e-17)
(0.4443252 -1.267265e-08 6.7611863e-17)
(0.44432517 1.0455413e-10 -2.8129439e-17)
(0.4443252 1.2328347e-08 3.0928016e-17)
(0.46016951 -2.9702716e-10 -7.893982e-17)
(0.46016951 -8.1340374e-09 7.2035501e-17)
(0.46016948 6.3168395e-11 -2.3661868e-17)
(0.46016951 7.8956391e-09 2.9675015e-17)
(0.47607654 -1.8849579e-10 -5.2924548e-17)
(0.47607653 -3.7750071e-09 5.9209239e-17)
(0.47607651 5.3099651e-11 -1.1774518e-17)
(0.47607653 3.6445923e-09 1.4195526e-17)
(0.49202131 -7.3502943e-11 -1.3477393e-17)
(0.49202131 -9.1070729e-10 2.0470614e-17)
(0.4920213 3.0403492e-11 2.9314812e-18)
(0.49202131 8.710621e-10 -5.188243e-18)
(-0.0030718102 1.6888461e-09 -1.1685038e-09)
(-0.0030718472 1.9953813e-09 9.985912e-11)
(-0.003071847 -2.0554984e-09 -5.4140726e-11)
(-0.003071815 -2.2002043e-09 1.0674449e-10)
(0.012463511 6.7265396e-09 -2.8515932e-09)
(0.012463439 7.7838091e-09 -3.1198578e-10)
(0.012463441 -7.3271532e-09 -2.9326929e-10)
(0.012463499 -8.2572417e-09 -2.8046987e-10)
(0.018328247 1.3206949e-08 -2.5535267e-09)
(0.018328186 1.5974216e-08 -4.3534169e-10)
(0.018328187 -1.4187276e-08 -3.5182411e-10)
(0.018328236 -1.668675e-08 -3.9679764e-10)
(0.020178256 1.7390251e-08 -1.9876906e-09)
(0.020178221 2.1511549e-08 -4.2928739e-10)
(0.020178222 -1.8701764e-08 -3.2846088e-10)
(0.020178247 -2.2558586e-08 -3.9346747e-10)
(0.02080944 1.8081009e-08 -1.4396615e-09)
(0.020809434 2.3029603e-08 -3.7896459e-10)
(0.020809434 -1.9742102e-08 -2.8236476e-10)
(0.020809436 -2.4419572e-08 -3.4923569e-10)
(0.021306532 1.6947422e-08 -1.0131694e-09)
(0.021306535 2.2153372e-08 -3.204142e-10)
(0.021306534 -1.8920146e-08 -2.3510238e-10)
(0.021306532 -2.3879614e-08 -2.966249e-10)
(0.021971434 1.6318379e-08 -7.1116363e-10)
(0.021971433 2.1534746e-08 -2.6638333e-10)
(0.021971431 -1.8553659e-08 -1.9328139e-10)
(0.021971435 -2.3566402e-08 -2.473313e-10)
(0.022831516 1.6639304e-08 -5.0305697e-10)
(0.022831511 2.1960666e-08 -2.1931716e-10)
(0.022831509 -1.9088784e-08 -1.5806754e-10)
(0.022831516 -2.4253952e-08 -2.0402238e-10)
(0.023866041 1.7267541e-08 -3.592134e-10)
(0.023866037 2.2887476e-08 -1.7898952e-10)
(0.023866034 -1.9884106e-08 -1.2889988e-10)
(0.023866041 -2.5393225e-08 -1.6679832e-10)
(0.025073736 1.7452102e-08 -2.5889062e-10)
(0.025073738 2.3490041e-08 -1.4484846e-10)
(0.025073735 -2.0191204e-08 -1.0488103e-10)
(0.025073736 -2.6158256e-08 -1.3525409e-10)
(0.026475806 1.6808891e-08 -1.8824755e-10)
(0.026475816 2.3269927e-08 -1.1628109e-10)
(0.026475813 -1.9631099e-08 -8.5160926e-11)
(0.026475806 -2.6053621e-08 -1.088569e-10)
(0.028103042 1.5354164e-08 -1.3804352e-10)
(0.028103059 2.2169089e-08 -9.2665987e-11)
(0.028103055 -1.822624e-08 -6.9004749e-11)
(0.028103043 -2.5026775e-08 -8.7019899e-11)
(0.029984965 1.3345013e-08 -1.0200846e-10)
(0.029984986 2.0428947e-08 -7.3362184e-11)
(0.029984983 -1.623981e-08 -5.5802211e-11)
(0.029984967 -2.332569e-08 -6.9137375e-11)
(0.032144638 1.1103772e-08 -7.5868172e-11)
(0.032144661 1.8398991e-08 -5.7753888e-11)
(0.032144657 -1.3999758e-08 -4.5015664e-11)
(0.032144641 -2.130644e-08 -5.4617953e-11)
(0.034597831 8.9025332e-09 -5.6729999e-11)
(0.034597854 1.6396256e-08 -4.5256794e-11)
(0.034597849 -1.1782806e-08 -3.6169742e-11)
(0.034597834 -1.9292119e-08 -4.2913711e-11)
(0.0373544 6.9164984e-09 -4.2616763e-11)
(0.037354423 1.4638849e-08 -3.5328714e-11)
(0.037354417 -9.7678725e-09 -2.8924617e-11)
(0.037354404 -1.7505961e-08 -3.354156e-11)
(0.040420292 5.2251903e-09 -3.2125422e-11)
(0.040420312 1.323653e-08 -2.749087e-11)
(0.040420306 -8.0373513e-09 -2.3017719e-11)
(0.040420297 -1.6061827e-08 -2.6081866e-11)
(0.043799333 3.8359553e-09 -2.4270475e-11)
(0.043799352 1.2211573e-08 -2.1309168e-11)
(0.043799345 -6.6008656e-09 -1.8243281e-11)
(0.043799338 -1.4985229e-08 -2.0180512e-11)
(0.047494531 2.7121876e-09 -1.8375023e-11)
(0.047494548 1.1528448e-08 -1.6401059e-11)
(0.04749454 -5.4237486e-09 -1.4415205e-11)
(0.047494536 -1.4243483e-08 -1.5539706e-11)
(0.051508873 1.7967972e-09 -1.3927367e-11)
(0.051508889 1.1120906e-08 -1.2520802e-11)
(0.051508881 -4.4505361e-09 -1.135833e-11)
(0.051508879 -1.3772911e-08 -1.1910921e-11)
(0.055845747 1.0281987e-09 -1.0559215e-11)
(0.055845763 1.0912052e-08 -9.5073784e-12)
(0.055845754 -3.621158e-09 -8.9106186e-12)
(0.055845753 -1.3498585e-08 -9.0886694e-12)
(0.060509103 3.4992366e-10 -8.0028295e-12)
(0.06050912 1.0826379e-08 -7.1874182e-12)
(0.060509109 -2.8805568e-09 -6.9396595e-12)
(0.06050911 -1.3346514e-08 -6.9050862e-12)
(0.065503459 -2.8486741e-10 -6.060176e-12)
(0.065503476 1.0795861e-08 -5.4119095e-12)
(0.065503465 -2.1831411e-09 -5.3734392e-12)
(0.065503467 -1.3249985e-08 -5.2249765e-12)
(0.070833818 -9.1199648e-10 -4.5831176e-12)
(0.070833836 1.0762497e-08 -4.0612626e-12)
(0.070833824 -1.4940711e-09 -4.1416094e-12)
(0.070833827 -1.3152065e-08 -3.9394456e-12)
(0.076505547 -1.5565798e-09 -3.4606731e-12)
(0.076505567 1.0678625e-08 -3.039453e-12)
(0.076505554 -7.8903393e-10 -3.1782505e-12)
(0.076505558 -1.3005904e-08 -2.9609907e-12)
(0.082524235 -2.2341239e-09 -2.6081452e-12)
(0.082524257 1.0506145e-08 -2.2701403e-12)
(0.082524243 -5.3168149e-11 -2.4288662e-12)
(0.082524247 -1.2773968e-08 -2.2200044e-12)
(0.088895545 -2.9518815e-09 -1.9617594e-12)
(0.088895569 1.0215354e-08 -1.693271e-12)
(0.088895554 7.203345e-10 -1.8488783e-12)
(0.088895559 -1.2426898e-08 -1.6613839e-12)
(0.095625071 -3.7102093e-09 -1.4725462e-12)
(0.095625097 9.7837729e-09 -1.2620865e-12)
(0.095625081 1.5315849e-09 -1.402054e-12)
(0.095625086 -1.1942351e-08 -1.2417999e-12)
(0.1027182 -4.5038085e-09 -1.1029889e-12)
(0.10271822 9.1951281e-09 -9.4056083e-13)
(0.10271821 2.3752181e-09 -1.0593144e-12)
(0.10271821 -1.1304005e-08 -9.2770221e-13)
(0.11017996 -5.3228126e-09 -8.2441654e-13)
(0.11017999 8.4385248e-09 -7.0119884e-13)
(0.11017998 3.2414704e-09 -7.9754044e-13)
(0.11017998 -1.0500763e-08 -6.9301277e-13)
(0.11801494 -6.1537516e-09 -6.1490448e-13)
(0.11801497 7.5078172e-09 -5.2317082e-13)
(0.11801495 4.1171211e-09 -5.9854675e-13)
(0.11801496 -9.5261437e-09 -5.1798358e-13)
(0.12622709 -6.980421e-09 -4.5773415e-13)
(0.12622713 6.4011329e-09 -3.9078459e-13)
(0.12622711 4.9863391e-09 -4.47925e-13)
(0.12622712 -8.3778365e-09 -3.875252e-13)
(0.1348197 -7.7846818e-09 -3.401285e-13)
(0.13481974 5.1205159e-09 -2.9228908e-13)
(0.13481972 5.8314582e-09 -3.3437122e-13)
(0.13481973 -7.0573701e-09 -2.9025288e-13)
(0.14379521 -8.547215e-09 -2.5229091e-13)
(0.14379525 3.6716563e-09 -2.1892583e-13)
(0.14379523 6.6337043e-09 -2.490998e-13)
(0.14379524 -5.5698653e-09 -2.1765259e-13)
(0.15315517 -9.2482497e-09 -1.8649715e-13)
(0.15315521 2.0636815e-09 -1.6417415e-13)
(0.15315519 7.3738908e-09 -1.8525386e-13)
(0.1531552 -3.9238484e-09 -1.6337305e-13)
(0.16290012 -9.8682426e-09 -1.3739323e-13)
(0.16290016 3.0899237e-10 -1.2322328e-13)
(0.16290014 8.0330904e-09 -1.3734826e-13)
(0.16290015 -2.131105e-09 -1.2270663e-13)
(0.17302952 -1.038856e-08 -1.010383e-13)
(0.17302957 -1.5768667e-09 -9.2530336e-14)
(0.17302955 8.5933048e-09 -1.0117114e-13)
(0.17302956 -2.0656676e-10 -9.2181225e-14)
(0.1835417 -1.0792158e-08 -7.4206073e-14)
(0.18354174 -3.5753011e-09 -6.9495732e-14)
(0.18354172 9.0381042e-09 -7.4322044e-14)
(0.18354173 1.8317678e-09 -6.9244402e-14)
(0.19443374 -1.106421e-08 -5.4455425e-14)
(0.19443378 -5.6647294e-09 -5.2189984e-14)
(0.19443376 9.3532402e-09 -5.4532839e-14)
(0.19443378 3.9628805e-09 -5.1993534e-14)
(0.20570149 -1.1192721e-08 -3.9945888e-14)
(0.20570154 -7.8206153e-09 -3.9174295e-14)
(0.20570152 9.5272551e-09 -3.9984686e-14)
(0.20570154 6.1627573e-09 -3.901333e-14)
(0.21733951 -1.1169111e-08 -2.9297646e-14)
(0.21733956 -1.001545e-08 -2.9382226e-14)
(0.21733953 9.5520546e-09 -2.9314406e-14)
(0.21733955 8.4043678e-09 -2.9240978e-14)
(0.22934099 -1.0988756e-08 -2.14914e-14)
(0.22934104 -1.2218679e-08 -2.2012973e-14)
(0.22934101 9.423441e-09 -2.1499442e-14)
(0.22934103 1.0657581e-08 -2.1869964e-14)
(0.24169779 -1.0651478e-08 -1.57729e-14)
(0.24169784 -1.4396549e-08 -1.6471626e-14)
(0.24169782 9.1415958e-09 -1.5780468e-14)
(0.24169784 1.2889009e-08 -1.6319512e-14)
(0.25440042 -1.0161968e-08 -1.158584e-14)
(0.25440047 -1.6511866e-08 -1.2306719e-14)
(0.25440045 8.7114958e-09 -1.1598564e-14)
(0.25440047 1.5061757e-08 -1.2145427e-14)
(0.26743802 -9.5301159e-09 -8.5119288e-15)
(0.26743807 -1.852363e-08 -9.1807575e-15)
(0.26743804 8.1432414e-09 -8.5414471e-15)
(0.26743807 1.7135061e-08 -9.0147168e-15)
(0.28079836 -8.7712283e-09 -6.2538082e-15)
(0.28079841 -2.038652e-08 -6.8430665e-15)
(0.28079838 7.4522702e-09 -6.3001388e-15)
(0.28079841 1.9063766e-08 -6.672411e-15)
(0.2944679 -7.9060972e-09 -4.5933882e-15)
(0.29446795 -2.2050236e-08 -5.0930665e-15)
(0.29446792 6.6594204e-09 -4.6568341e-15)
(0.29446795 2.0797667e-08 -4.9245324e-15)
(0.3084318 -6.9608655e-09 -3.3750289e-15)
(0.30843184 -2.3458689e-08 -3.7788926e-15)
(0.30843181 5.7907945e-09 -3.4508297e-15)
(0.30843185 2.2280693e-08 -3.6285682e-15)
(0.32267394 -5.9666262e-09 -2.4750548e-15)
(0.32267398 -2.4549115e-08 -2.800749e-15)
(0.32267395 4.8773566e-09 -2.5610983e-15)
(0.32267398 2.3450023e-08 -2.6732962e-15)
(0.337177 -4.9586614e-09 -1.8108254e-15)
(0.33717704 -2.5251257e-08 -2.0740175e-15)
(0.33717701 3.9541707e-09 -1.9057876e-15)
(0.33717704 2.4235269e-08 -1.9655178e-15)
(0.35192251 -3.9751938e-09 -1.3145607e-15)
(0.35192254 -2.5486946e-08 -1.542126e-15)
(0.35192251 3.0591566e-09 -1.4250319e-15)
(0.35192255 2.455806e-08 -1.4396131e-15)
(0.36689089 -3.0554904e-09 -9.5179829e-16)
(0.36689092 -2.5170677e-08 -1.1486194e-15)
(0.36689089 2.2312015e-09 -1.0641086e-15)
(0.36689093 2.4332627e-08 -1.0545713e-15)
(0.38206158 -2.2371181e-09 -6.8182194e-16)
(0.3820616 -2.4212532e-08 -8.5660324e-16)
(0.38206157 1.5074317e-09 -7.9846886e-16)
(0.38206161 2.3468749e-08 -7.7034976e-16)
(0.39741306 -1.5521108e-09 -4.7921547e-16)
(0.39741308 -2.2526142e-08 -6.4486169e-16)
(0.39741305 9.1941856e-10 -5.9945322e-16)
(0.39741308 2.187974e-08 -5.7125398e-16)
(0.41292299 -1.0218084e-09 -3.2726983e-16)
(0.412923 -2.0045172e-08 -4.9893513e-16)
(0.41292297 4.8809698e-10 -4.5042338e-16)
(0.412923 1.9498989e-08 -4.2911969e-16)
(0.42856827 -6.504936e-10 -2.1840492e-16)
(0.42856828 -1.6749296e-08 -3.9944908e-16)
(0.42856825 2.1746784e-10 -3.3696299e-16)
(0.42856828 1.6305944e-08 -3.3634861e-16)
(0.4443252 -4.1905169e-10 -1.463601e-16)
(0.4443252 -1.270232e-08 -3.3513611e-16)
(0.44432517 8.8359082e-11 -2.5011364e-16)
(0.4443252 1.2364539e-08 -2.6830998e-16)
(0.46016951 -2.82451e-10 -1.1157031e-16)
(0.46016951 -8.1510946e-09 -2.8516358e-16)
(0.46016948 5.6441285e-11 -1.8604002e-16)
(0.46016951 7.923157e-09 -2.1987998e-16)
(0.47607654 -1.7673376e-10 -1.001618e-16)
(0.47607653 -3.7794337e-09 -2.1829323e-16)
(0.47607651 5.6482382e-11 -1.4004056e-16)
(0.47607653 3.6629974e-09 -1.7273147e-16)
(0.49202131 -6.8263406e-11 -8.0483781e-17)
(0.49202131 -9.0881112e-10 -1.0794444e-16)
(0.4920213 3.4256564e-11 -7.9928101e-17)
(0.49202131 8.7786364e-10 -9.0427057e-17)
(-0.0030718068 1.975396e-09 1.7932088e-11)
(-0.003071844 2.0438626e-09 9.1064908e-12)
(-0.0030718436 -2.0851209e-09 2.7609964e-11)
(-0.0030718115 -2.1929094e-09 -2.4747282e-13)
(0.012463521 7.0219901e-09 1.7869911e-11)
(0.012463447 7.8835664e-09 2.030823e-11)
(0.012463449 -7.5862389e-09 3.5580208e-11)
(0.01246351 -8.4322507e-09 1.1277066e-11)
(0.018328258 1.3333764e-08 1.9170959e-11)
(0.018328195 1.6024017e-08 2.4430966e-11)
(0.018328197 -1.4596923e-08 3.8218373e-11)
(0.018328246 -1.7055817e-08 1.6615867e-11)
(0.020178266 1.7440633e-08 2.1051067e-11)
(0.020178228 2.1580106e-08 2.563326e-11)
(0.020178229 -1.9217013e-08 3.8179621e-11)
(0.020178257 -2.309646e-08 1.8777076e-11)
(0.020809447 1.8201156e-08 2.1648056e-11)
(0.020809439 2.3179469e-08 2.535708e-11)
(0.02080944 -2.0344742e-08 3.6160838e-11)
(0.020809442 -2.5092371e-08 1.959751e-11)
(0.021306535 1.7071095e-08 2.0957614e-11)
(0.021306537 2.2318201e-08 2.4008356e-11)
(0.021306537 -1.9483749e-08 3.2741501e-11)
(0.021306534 -2.4552689e-08 1.9440556e-11)
(0.021971435 1.6395826e-08 1.9335057e-11)
(0.021971434 2.1656033e-08 2.1766509e-11)
(0.021971433 -1.9012108e-08 2.856041e-11)
(0.021971435 -2.4141838e-08 1.8454003e-11)
(0.022831517 1.6670498e-08 1.7077936e-11)
(0.022831512 2.202793e-08 1.9022915e-11)
(0.02283151 -1.9440254e-08 2.4153956e-11)
(0.022831517 -2.4702298e-08 1.6853752e-11)
(0.023866043 1.7272937e-08 1.4488895e-11)
(0.023866039 2.2915459e-08 1.613941e-11)
(0.023866037 -2.0152439e-08 1.9870527e-11)
(0.023866042 -2.5725132e-08 1.4885069e-11)
(0.025073739 1.7451181e-08 1.1858041e-11)
(0.025073741 2.3498447e-08 1.3362058e-11)
(0.025073738 -2.0400972e-08 1.5924446e-11)
(0.025073738 -2.6397706e-08 1.2780875e-11)
(0.026475809 1.6813117e-08 9.4263835e-12)
(0.026475819 2.3273769e-08 1.0872933e-11)
(0.026475816 -1.9798937e-08 1.2434488e-11)
(0.026475809 -2.6223742e-08 1.0731379e-11)
(0.028103045 1.5367609e-08 7.3393644e-12)
(0.028103061 2.2176328e-08 8.7680395e-12)
(0.028103058 -1.8361246e-08 9.4502095e-12)
(0.028103045 -2.5145402e-08 8.8588457e-12)
(0.029984967 1.336727e-08 5.6450358e-12)
(0.029984988 2.0441938e-08 7.0545405e-12)
(0.029984985 -1.6346434e-08 6.9703078e-12)
(0.029984969 -2.3405511e-08 7.2236804e-12)
(0.03214464 1.1132729e-08 4.2976395e-12)
(0.032144663 1.8416848e-08 5.6748062e-12)
(0.032144659 -1.408029e-08 4.9747096e-12)
(0.032144642 -2.1356414e-08 5.8410807e-12)
(0.034597832 8.9361249e-09 3.190951e-12)
(0.034597855 1.641697e-08 4.5601303e-12)
(0.034597851 -1.1839532e-08 3.4300696e-12)
(0.034597835 -1.9318857e-08 4.6972745e-12)
(0.037354402 6.9533816e-09 2.2537446e-12)
(0.037354424 1.4660371e-08 3.6597882e-12)
(0.037354418 -9.8038446e-09 2.2711177e-12)
(0.037354405 -1.7514665e-08 3.7644748e-12)
(0.040420293 5.2646223e-09 1.493861e-12)
(0.040420313 1.3257102e-08 2.9398164e-12)
(0.040420307 -8.0561027e-09 1.441149e-12)
(0.040420297 -1.6056775e-08 3.0129895e-12)
(0.043799335 3.8775319e-09 9.0508352e-13)
(0.043799353 1.2229773e-08 2.3731973e-12)
(0.043799346 -6.6060377e-09 8.6119686e-13)
(0.043799339 -1.496999e-08 2.4121353e-12)
(0.047494532 2.7555472e-09 4.8919514e-13)
(0.047494549 1.1543399e-08 1.9220891e-12)
(0.047494541 -5.4185603e-09 4.6001905e-13)
(0.047494537 -1.4221007e-08 1.9339584e-12)
(0.051508874 1.8414759e-09 2.0692069e-13)
(0.05150889 1.1132404e-08 1.5503695e-12)
(0.051508882 -4.4376958e-09 1.9155489e-13)
(0.051508879 -1.3745574e-08 1.5533153e-12)
(0.055845748 1.0737292e-09 2.3444194e-14)
(0.055845764 1.092025e-08 1.2464676e-12)
(0.055845755 -3.6029548e-09 2.5669506e-14)
(0.055845754 -1.3468239e-08 1.2493103e-12)
(0.060509105 3.9581386e-10 -8.7844237e-14)
(0.060509121 1.0831565e-08 1.0008179e-12)
(0.060509111 -2.8588085e-09 -7.1636793e-14)
(0.060509111 -1.3314564e-08 1.00509e-12)
(0.06550346 -2.3912748e-10 -1.479786e-13)
(0.065503477 1.0798441e-08 8.0170521e-13)
(0.065503466 -2.1592155e-09 -1.292037e-13)
(0.065503468 -1.3217474e-08 8.0734979e-13)
(0.070833819 -8.6690729e-10 -1.7331154e-13)
(0.070833837 1.0762953e-08 6.4002903e-13)
(0.070833826 -1.4690171e-09 -1.552764e-13)
(0.070833828 -1.3119762e-08 6.4656997e-13)
(0.076505549 -1.5126083e-09 -1.7593789e-13)
(0.076505568 1.0677471e-08 5.0866708e-13)
(0.076505556 -7.6362573e-10 -1.5997745e-13)
(0.076505559 -1.2974381e-08 5.1541881e-13)
(0.082524237 -2.1916866e-09 -1.6482897e-13)
(0.082524258 1.050389e-08 4.0199037e-13)
(0.082524244 -2.7918915e-11 -1.515051e-13)
(0.082524248 -1.2743666e-08 4.0838817e-13)
(0.088895547 -2.9113345e-09 -1.4627825e-13)
(0.08889557 1.0212483e-08 3.1552325e-13)
(0.088895555 7.4513311e-10 -1.3573184e-13)
(0.08889556 -1.2398174e-08 3.2119254e-13)
(0.095625072 -3.6718434e-09 -1.246541e-13)
(0.095625098 9.780737e-09 2.4568135e-13)
(0.095625083 1.5558192e-09 -1.1662368e-13)
(0.095625087 -1.1915516e-08 2.5039699e-13)
(0.1027182 -4.4678471e-09 -1.0279465e-13)
(0.10271823 9.1923396e-09 1.8956452e-13)
(0.10271821 2.3989109e-09 -9.6807723e-14)
(0.10271822 -1.1279345e-08 1.933084e-13)
(0.11017996 -5.2894179e-09 -8.2393437e-14)
(0.11017999 8.4363586e-09 1.4478391e-13)
(0.11017998 3.2647475e-09 -7.7981611e-14)
(0.11017998 -1.0478551e-08 1.4763285e-13)
(0.11801494 -6.1230348e-09 -6.4347899e-14)
(0.11801497 7.5066152e-09 1.0934072e-13)
(0.11801495 4.1401867e-09 -6.1169203e-14)
(0.11801496 -9.5066449e-09 1.1144975e-13)
(0.12622709 -6.9524546e-09 -4.9045981e-14)
(0.12622713 6.4012098e-09 8.1557325e-14)
(0.12622711 5.0094516e-09 -4.6807084e-14)
(0.12622712 -8.3613062e-09 8.3081316e-14)
(0.1348197 -7.7595115e-09 -3.6498477e-14)
(0.13481974 5.1221649e-09 6.0016783e-14)
(0.13481972 5.8549057e-09 -3.496517e-14)
(0.13481973 -7.0440496e-09 6.1090088e-14)
(0.14379521 -8.5248677e-09 -2.6497059e-14)
(0.14379525 3.6751544e-09 4.351988e-14)
(0.14379523 6.6577843e-09 -2.5501098e-14)
(0.14379524 -5.5599767e-09 4.4261341e-14)
(0.15315517 -9.2287277e-09 -1.863693e-14)
(0.15315521 2.0692934e-09 3.105845e-14)
(0.15315519 7.3988954e-09 -1.8140343e-14)
(0.1531552 -3.9175899e-09 3.1566847e-14)
(0.16290012 -9.8515523e-09 -1.2632896e-14)
(0.16290016 3.1697227e-10 2.1784475e-14)
(0.16290014 8.0593018e-09 -1.2504078e-14)
(0.16290015 -2.1286477e-09 2.2135036e-14)
(0.17302952 -1.0374731e-08 -8.2361106e-15)
(0.17302957 -1.566276e-09 1.4992412e-14)
(0.17302955 8.6209698e-09 -8.1518516e-15)
(0.17302956 -2.0805357e-10 1.5243935e-14)
(0.1835417 -1.0781223e-08 -5.1136303e-15)
(0.18354174 -3.5618692e-09 1.0099565e-14)
(0.18354172 9.0674197e-09 -5.0323928e-15)
(0.18354173 1.8262254e-09 1.0289186e-14)
(0.19443374 -1.1056205e-08 -2.9705296e-15)
(0.19443378 -5.6482413e-09 6.6396058e-15)
(0.19443376 9.3843634e-09 -2.8899483e-15)
(0.19443378 3.9532044e-09 6.7890683e-15)
(0.20570149 -1.1187685e-08 -1.5523839e-15)
(0.20570154 -7.8008753e-09 4.2388205e-15)
(0.20570152 9.5602985e-09 -1.4738423e-15)
(0.20570154 6.1489034e-09 4.3685701e-15)
(0.21733951 -1.1167085e-08 -6.5631514e-16)
(0.21733955 -9.9922888e-09 2.6045402e-15)
(0.21733953 9.5870822e-09 -5.8080394e-16)
(0.21733955 8.3863249e-09 2.7366494e-15)
(0.22934099 -1.0989777e-08 -1.254462e-16)
(0.22934103 -1.2191959e-08 1.5219673e-15)
(0.22934101 9.4604656e-09 -5.2218907e-17)
(0.22934103 1.0635369e-08 1.6614445e-15)
(0.24169779 -1.0655574e-08 1.5745619e-16)
(0.24169784 -1.4366178e-08 8.2513528e-16)
(0.24169782 9.180577e-09 2.3144092e-16)
(0.24169784 1.2862684e-08 9.7770212e-16)
(0.25440042 -1.016915e-08 2.8107272e-16)
(0.25440047 -1.6477802e-08 3.9149096e-16)
(0.25440045 8.7523371e-09 3.5929141e-16)
(0.25440047 1.5031416e-08 5.5992368e-16)
(0.26743802 -9.5403675e-09 3.1187741e-16)
(0.26743806 -1.8485896e-08 1.3566366e-16)
(0.26743804 8.1857859e-09 3.8867863e-16)
(0.26743807 1.7100838e-08 3.1393493e-16)
(0.28079836 -8.7844983e-09 2.9583185e-16)
(0.2807984 -2.0345218e-08 -4.3754911e-18)
(0.28079838 7.4962952e-09 3.6592048e-16)
(0.28079841 1.9025843e-08 1.7118774e-16)
(0.2944679 -7.9222847e-09 2.5756915e-16)
(0.29446794 -2.2005559e-08 -7.0145354e-17)
(0.29446792 6.7046299e-09 3.1193316e-16)
(0.29446795 2.0756277e-08 9.5240179e-17)
(0.3084318 -6.9798051e-09 2.1520659e-16)
(0.30843184 -2.341094e-08 -9.8166616e-17)
(0.30843181 5.8368087e-09 2.5103904e-16)
(0.30843184 2.2236137e-08 5.7195389e-17)
(0.32267394 -5.9880711e-09 1.7376084e-16)
(0.32267398 -2.4498725e-08 -1.0617099e-16)
(0.32267395 4.9236989e-09 1.9233665e-16)
(0.32267398 2.3402681e-08 4.2670635e-17)
(0.337177 -4.9822643e-09 1.4569507e-16)
(0.33717704 -2.519881e-08 -1.0797195e-16)
(0.33717701 4.0002517e-09 1.4234629e-16)
(0.33717704 2.4185623e-08 3.4486886e-17)
(0.35192251 -4.0004864e-09 1.1986437e-16)
(0.35192254 -2.5433207e-08 -9.975281e-17)
(0.35192251 3.1042563e-09 1.0162174e-16)
(0.35192255 2.4506717e-08 3.1375254e-17)
(0.36689089 -3.0818639e-09 9.3694986e-17)
(0.36689092 -2.5116627e-08 -8.2156981e-17)
(0.36689089 2.2744518e-09 7.2420251e-17)