/*--------------------------------*- C++ -*----------------------------------*\
| =========                 |                                                 |
| \\      /  F ield         | OpenFOAM: The Open Source CFD Toolbox           |
|  \\    /   O peration     | Version:  3.0.x                                 |
|   \\  /    A nd           | Web:      www.OpenFOAM.org                      |
|    \\/     M anipulation  |                                                 |
\*---------------------------------------------------------------------------*/
FoamFile
{
    version     2.0;
    format      ascii;
    class       volScalarField;
    location    "325";
    object      sigmaxy;
}
// * * * * * * * * * * * * * * * * * * * * * * * * * * * * * * * * * * * * * //

dimensions      [0 2 -2 0 0 0 0];

internalField   nonuniform List<scalar> 
960
(
-0.0070958476
-0.0070958164
-0.0070958207
-0.0070958746
-0.0046740908
-0.0046740468
-0.0046740457
-0.0046740903
-0.002296354
-0.0022963241
-0.0022963209
-0.0022963375
-0.0006945943
-0.00069457995
-0.00069457777
-0.00069458037
0.00024225562
0.00024221852
0.00024221957
0.00024226579
0.00075349085
0.00075344973
0.00075345027
0.00075349116
0.0010630101
0.0010629871
0.0010629875
0.0010630068
0.0012820255
0.0012820184
0.0012820186
0.0012820224
0.0014551804
0.0014551813
0.0014551813
0.0014551782
0.0016071775
0.0016071816
0.0016071813
0.0016071758
0.0017570188
0.0017570236
0.0017570229
0.0017570173
0.0019181706
0.0019181745
0.0019181736
0.0019181694
0.0020981101
0.0020981119
0.0020981107
0.002098109
0.0022998456
0.0022998454
0.0022998436
0.0022998445
0.0025240744
0.0025240712
0.0025240694
0.0025240731
0.0027707891
0.0027707833
0.0027707812
0.0027707883
0.0030400692
0.0030400616
0.0030400592
0.0030400674
0.0033322755
0.003332267
0.0033322644
0.0033322735
0.003647965
0.0036479558
0.0036479522
0.0036479634
0.0039877406
0.0039877309
0.0039877269
0.0039877387
0.0043521375
0.0043521273
0.0043521236
0.0043521358
0.0047415669
0.0047415565
0.0047415518
0.0047415655
0.0051563051
0.0051562952
0.0051562894
0.0051563033
0.0055965033
0.0055964934
0.0055964872
0.0055965005
0.0060621985
0.0060621887
0.0060621821
0.0060621959
0.0065533194
0.0065533098
0.0065533034
0.006553317
0.007069679
0.0070696698
0.0070696623
0.0070696761
0.0076109543
0.0076109463
0.0076109376
0.0076109516
0.0081766645
0.0081766578
0.0081766487
0.0081766621
0.0087661445
0.0087661385
0.0087661297
0.0087661423
0.0093785151
0.0093785108
0.0093785016
0.0093785139
0.010012663
0.010012659
0.010012649
0.010012661
0.010667218
0.010667217
0.010667206
0.010667217
0.011340545
0.011340544
0.011340532
0.011340544
0.012030734
0.012030736
0.012030727
0.012030736
0.012735596
0.012735604
0.012735589
0.012735601
0.01345268
0.013452683
0.013452675
0.013452678
0.014179268
0.014179266
0.014179259
0.01417926
0.014912382
0.014912389
0.014912375
0.014912381
0.015648845
0.015648853
0.015648847
0.015648845
0.016385254
0.016385258
0.016385253
0.016385255
0.017118024
0.017118031
0.017118026
0.017118033
0.017843437
0.017843451
0.017843441
0.01784344
0.018557647
0.018557663
0.018557654
0.018557644
0.019256719
0.01925673
0.019256729
0.019256724
0.019936676
0.019936689
0.019936689
0.019936689
0.020593535
0.02059355
0.020593552
0.020593544
0.021223341
0.02122335
0.021223354
0.021223345
0.021822203
0.021822213
0.021822212
0.021822201
0.02238633
0.022386341
0.022386347
0.02238633
0.022912109
0.022912113
0.022912121
0.02291211
0.023396078
0.023396083
0.023396091
0.02339608
0.023835029
0.023835027
0.023835043
0.023835025
0.024225996
0.024225999
0.024226002
0.024225985
0.024566303
0.024566305
0.024566307
0.024566299
0.024853619
0.024853606
0.024853614
0.024853608
0.025085923
0.025085907
0.025085921
0.025085904
0.025261597
0.025261585
0.025261603
0.025261583
0.025379406
0.025379403
0.025379426
0.025379395
0.025438516
0.02543853
0.025438571
0.025438523
-0.0070958702
-0.0070958405
-0.0070958421
-0.0070958929
-0.0046740897
-0.0046740457
-0.0046740469
-0.0046740909
-0.0022963396
-0.0022963075
-0.0022963084
-0.0022963275
-0.00069458247
-0.00069456633
-0.00069456685
-0.00069457118
0.00024226462
0.00024222959
0.00024222864
0.00024227246
0.00075349006
0.00075345077
0.00075344999
0.0007534886
0.0010630057
0.0010629841
0.0010629837
0.0010630011
0.0012820215
0.0012820155
0.0012820153
0.0012820178
0.0014551778
0.0014551794
0.0014551791
0.0014551752
0.0016071758
0.0016071802
0.0016071797
0.0016071739
0.0017570176
0.0017570226
0.0017570218
0.001757016
0.0019181699
0.0019181738
0.0019181727
0.0019181686
0.0020981097
0.0020981114
0.0020981101
0.0020981086
0.0022998454
0.0022998446
0.0022998434
0.0022998445
0.0025240743
0.0025240707
0.0025240688
0.0025240731
0.0027707892
0.0027707833
0.0027707804
0.0027707876
0.0030400692
0.0030400616
0.0030400591
0.0030400674
0.0033322756
0.003332267
0.0033322643
0.0033322735
0.0036479644
0.0036479558
0.0036479521
0.0036479634
0.0039877407
0.0039877309
0.0039877269
0.0039877393
0.0043521382
0.0043521273
0.0043521229
0.0043521358
0.004741567
0.0047415565
0.0047415517
0.0047415649
0.0051563052
0.0051562952
0.0051562894
0.0051563027
0.0055965027
0.0055964928
0.0055964872
0.0055965004
0.0060621979
0.0060621887
0.0060621821
0.0060621959
0.0065533201
0.0065533105
0.0065533027
0.0065533176
0.007069679
0.0070696698
0.0070696629
0.0070696767
0.0076109537
0.0076109463
0.0076109383
0.0076109509
0.0081766645
0.0081766578
0.0081766487
0.008176662
0.0087661445
0.0087661386
0.0087661291
0.0087661423
0.0093785152
0.0093785108
0.0093785009
0.0093785132
0.010012663
0.01001266
0.01001265
0.010012662
0.010667219
0.010667217
0.010667206
0.010667217
0.011340548
0.011340545
0.011340534
0.011340546
0.012030736
0.012030738
0.012030722
0.012030731
0.012735596
0.012735604
0.012735589
0.012735594
0.01345268
0.013452683
0.013452675
0.013452685
0.014179268
0.014179266
0.014179259
0.014179267
0.014912382
0.014912389
0.014912382
0.014912381
0.015648838
0.015648853
0.015648847
0.015648845
0.016385248
0.016385258
0.016385253
0.016385255
0.017118031
0.017118031
0.017118026
0.017118033
0.017843443
0.017843451
0.017843441
0.01784344
0.01855764
0.018557663
0.018557654
0.018557651
0.019256719
0.01925673
0.019256729
0.019256724
0.019936682
0.019936689
0.019936689
0.019936683
0.020593542
0.02059355
0.020593552
0.020593544
0.021223341
0.021223357
0.02122336
0.021223345
0.021822197
0.021822213
0.021822218
0.021822208
0.022386337
0.022386341
0.02238634
0.022386336
0.022912109
0.022912113
0.022912121
0.022912103
0.023396078
0.023396083
0.023396098
0.023396074
0.023835029
0.023835033
0.023835036
0.023835025
0.024225996
0.024225992
0.024226002
0.024225992
0.024566303
0.024566298
0.024566314
0.024566299
0.024853612
0.024853606
0.024853614
0.024853601
0.025085923
0.025085914
0.025085921
0.02508591
0.025261597
0.025261585
0.025261597
0.025261583
0.025379406
0.025379397
0.025379419
0.025379395
0.025438516
0.02543853
0.025438571
0.025438517
-0.0070958474
-0.0070958192
-0.007095821
-0.0070958718
-0.0046740908
-0.0046740442
-0.0046740456
-0.0046740929
-0.002296354
-0.00229632
-0.0022963207
-0.0022963416
-0.00069459435
-0.00069457743
-0.00069457764
-0.00069458289
0.00024225553
0.00024222046
0.0002422196
0.00024226392
0.00075349075
0.00075345116
0.00075345031
0.00075348974
0.0010630101
0.0010629882
0.0010629876
0.0010630057
0.0012820255
0.0012820191
0.0012820187
0.0012820217
0.0014551804
0.0014551819
0.0014551813
0.0014551777
0.0016071775
0.001607182
0.0016071813
0.0016071755
0.0017570188
0.0017570238
0.001757023
0.0017570171
0.0019181706
0.0019181747
0.0019181736
0.0019181692
0.0020981101
0.002098112
0.0020981106
0.0020981088
0.0022998456
0.0022998455
0.0022998436
0.002299845
0.0025240744
0.0025240713
0.0025240694
0.002524073
0.0027707891
0.0027707833
0.0027707812
0.0027707876
0.0030400692
0.0030400616
0.0030400592
0.0030400674
0.0033322755
0.003332267
0.0033322644
0.0033322735
0.003647965
0.0036479558
0.0036479522
0.0036479634
0.0039877406
0.0039877309
0.0039877269
0.0039877387
0.0043521375
0.0043521273
0.0043521236
0.0043521358
0.0047415669
0.0047415565
0.0047415518
0.0047415655
0.0051563051
0.0051562952
0.0051562894
0.0051563033
0.0055965033
0.0055964934
0.0055964872
0.0055965005
0.0060621985
0.0060621887
0.0060621821
0.0060621959
0.0065533194
0.0065533098
0.0065533034
0.006553317
0.007069679
0.0070696698
0.0070696623
0.0070696761
0.0076109543
0.0076109463
0.0076109376
0.0076109516
0.0081766645
0.0081766578
0.0081766487
0.0081766621
0.0087661445
0.0087661385
0.0087661297
0.0087661423
0.0093785151
0.0093785108
0.0093785016
0.0093785139
0.010012663
0.010012659
0.010012649
0.010012661
0.010667218
0.010667217
0.010667206
0.010667217
0.011340545
0.011340544
0.011340532
0.011340544
0.012030734
0.012030736
0.012030727
0.012030736
0.012735596
0.012735604
0.012735589
0.012735601
0.01345268
0.013452683
0.013452675
0.013452678
0.014179268
0.014179266
0.014179259
0.01417926
0.014912382
0.014912389
0.014912375
0.014912381
0.015648845
0.015648853
0.015648847
0.015648845
0.016385254
0.016385258
0.016385253
0.016385255
0.017118024
0.017118031
0.017118026
0.017118033
0.017843437
0.017843451
0.017843441
0.01784344
0.018557647
0.018557663
0.018557654
0.018557644
0.019256719
0.01925673
0.019256729
0.019256724
0.019936676
0.019936689
0.019936689
0.019936689
0.020593535
0.02059355
0.020593552
0.020593544
0.021223341
0.02122335
0.021223354
0.021223345
0.021822203
0.021822213
0.021822212
0.021822201
0.02238633
0.022386341
0.022386347
0.02238633
0.022912109
0.022912113
0.022912121
0.02291211
0.023396078
0.023396083
0.023396091
0.02339608
0.023835029
0.023835027
0.023835043
0.023835025
0.024225996
0.024225999
0.024226002
0.024225985
0.024566303
0.024566305
0.024566307
0.024566299
0.024853619
0.024853606
0.024853614
0.024853608
0.025085923
0.025085907
0.025085921
0.025085904
0.025261597
0.025261585
0.025261603
0.025261583
0.025379406
0.025379403
0.025379426
0.025379395
0.025438516
0.02543853
0.025438571
0.025438523
-0.0070958701
-0.0070958409
-0.0070958422
-0.0070958925
-0.0046740896
-0.0046740456
-0.004674047
-0.004674091
-0.0022963395
-0.0022963072
-0.0022963084
-0.0022963277
-0.00069458247
-0.00069456608
-0.00069456684
-0.00069457136
0.00024226457
0.0002422297
0.00024222869
0.00024227227
0.00075348999
0.00075345081
0.00075345006
0.00075348849
0.0010630056
0.0010629841
0.0010629838
0.0010630011
0.0012820215
0.0012820155
0.0012820153
0.0012820177
0.0014551778
0.0014551794
0.0014551791
0.0014551752
0.0016071758
0.0016071802
0.0016071798
0.0016071739
0.0017570176
0.0017570226
0.0017570218
0.001757016
0.0019181699
0.0019181738
0.0019181727
0.0019181686
0.0020981097
0.0020981114
0.0020981101
0.0020981085
0.0022998454
0.0022998446
0.0022998434
0.0022998445
0.0025240743
0.0025240707
0.0025240688
0.0025240732
0.0027707892
0.0027707833
0.0027707804
0.0027707876
0.0030400692
0.0030400616
0.0030400591
0.0030400674
0.0033322756
0.003332267
0.0033322643
0.0033322735
0.0036479644
0.0036479558
0.0036479521
0.0036479634
0.0039877407
0.0039877309
0.0039877269
0.0039877393
0.0043521382
0.0043521273
0.0043521229
0.0043521358
0.004741567
0.0047415565
0.0047415517
0.0047415649
0.0051563052
0.0051562952
0.0051562894
0.0051563027
0.0055965027
0.0055964928
0.0055964872
0.0055965004
0.0060621979
0.0060621887
0.0060621821
0.0060621959
0.0065533201
0.0065533105
0.0065533027
0.0065533176
0.007069679
0.0070696698
0.0070696629
0.0070696767
0.0076109537
0.0076109463
0.0076109383
0.0076109509
0.0081766645
0.0081766578
0.0081766487
0.008176662
0.0087661445
0.0087661386
0.0087661291
0.0087661423
0.0093785152
0.0093785108
0.0093785009
0.0093785132
0.010012663
0.01001266
0.01001265
0.010012662
0.010667219
0.010667217
0.010667206
0.010667217
0.011340548
0.011340545
0.011340534
0.011340546
0.012030736
0.012030738
0.012030722
0.012030731
0.012735596
0.012735604
0.012735589
0.012735594
0.01345268
0.013452683
0.013452675
0.013452685
0.014179268
0.014179266
0.014179259
0.014179267
0.014912382
0.014912389
0.014912382
0.014912381
0.015648838
0.015648853
0.015648847
0.015648845
0.016385248
0.016385258
0.016385253
0.016385255
0.017118031
0.017118031
0.017118026
0.017118033
0.017843443
0.017843451
0.017843441
0.01784344
0.01855764
0.018557663
0.018557654
0.018557651
0.019256719
0.01925673
0.019256729
0.019256724
0.019936682
0.019936689
0.019936689
0.019936683
0.020593542
0.02059355
0.020593552
0.020593544
0.021223341
0.021223357
0.02122336
0.021223345
0.021822197
0.021822213
0.021822218
0.021822208
0.022386337
0.022386341
0.02238634
0.022386336
0.022912109
0.022912113
0.022912121
0.022912103
0.023396078
0.023396083
0.023396098
0.023396074
0.023835029
0.023835033
0.023835036
0.023835025
0.024225996
0.024225992
0.024226002
0.024225992
0.024566303
0.024566298
0.024566314
0.024566299
0.024853612
0.024853606
0.024853614
0.024853601
0.025085923
0.025085914
0.025085921
0.02508591
0.025261597
0.025261585
0.025261597
0.025261583
0.025379406
0.025379397
0.025379419
0.025379395
0.025438516
0.02543853
0.025438571
0.025438517
)
;

boundaryField
{
    movingWall
    {
        type            calculated;
        value           nonuniform List<scalar> 
16
(
0.025453317
0.025453317
0.025453317
0.025453317
0.025453345
0.025453345
0.025453345
0.025453345
0.025453399
0.025453399
0.025453399
0.025453399
0.025453345
0.025453318
0.025453345
0.025453318
)
;
    }
    CPLReceiveMD
    {
        type            calculated;
        value           nonuniform List<scalar> 
16
(
-0.0081309719
-0.0081309985
-0.0081309716
-0.0081309982
-0.0081309941
-0.008131021
-0.0081309988
-0.0081310218
-0.0081310014
-0.0081310239
-0.008131002
-0.0081310239
-0.0081310053
-0.0081310262
-0.0081310003
-0.0081310255
)
;
    }
    streamwiseIn
    {
        type            cyclic;
    }
    streamwiseOut
    {
        type            cyclic;
    }
    front
    {
        type            cyclic;
    }
    back
    {
        type            cyclic;
    }
}


// ************************************************************************* //
