/*--------------------------------*- C++ -*----------------------------------*\
| =========                 |                                                 |
| \\      /  F ield         | OpenFOAM: The Open Source CFD Toolbox           |
|  \\    /   O peration     | Version:  3.0.x                                 |
|   \\  /    A nd           | Web:      www.OpenFOAM.org                      |
|    \\/     M anipulation  |                                                 |
\*---------------------------------------------------------------------------*/
FoamFile
{
    version     2.0;
    format      ascii;
    class       volScalarField;
    location    "325";
    object      sigmazz;
}
// * * * * * * * * * * * * * * * * * * * * * * * * * * * * * * * * * * * * * //

dimensions      [0 2 -2 0 0 0 0];

internalField   nonuniform List<scalar> 
960
(
-1.4874531e-08
-3.3106029e-09
8.4593749e-10
1.1857294e-09
-5.1852874e-09
-4.1030428e-09
6.6632841e-09
4.2121494e-09
2.3554522e-09
-1.3692932e-09
3.6887043e-09
1.1723059e-09
-8.2565381e-10
-4.1598911e-09
5.9433709e-09
3.7294808e-09
-9.970053e-10
-2.9630153e-09
3.6561406e-09
2.984459e-09
-7.1367026e-10
-2.3586122e-09
2.8858722e-09
2.7909548e-09
-4.119177e-10
-1.8786421e-09
2.28903e-09
2.5495484e-09
-2.4326212e-10
-1.4417832e-09
1.838413e-09
2.2761101e-09
-1.9571534e-10
-1.0970639e-09
1.5638684e-09
2.0023979e-09
-2.8397927e-10
-9.1325376e-10
1.4644013e-09
1.8140232e-09
-4.5993214e-10
-8.6842179e-10
1.4706257e-09
1.7114954e-09
-6.5705645e-10
-8.8417594e-10
1.5088145e-09
1.6384112e-09
-8.3523188e-10
-9.7087194e-10
1.5388007e-09
1.6217727e-09
-1.0191403e-09
-1.0745506e-09
1.5881791e-09
1.6188448e-09
-1.2703733e-09
-1.2357387e-09
1.7213781e-09
1.6785309e-09
-1.3678496e-09
-1.3651579e-09
1.7185975e-09
1.7170064e-09
-1.4061393e-09
-1.4528689e-09
1.6743824e-09
1.7273106e-09
-1.5892578e-09
-1.5861208e-09
1.7916511e-09
1.7972729e-09
-1.6826828e-09
-1.7469162e-09
1.8340524e-09
1.907848e-09
-1.7906044e-09
-1.8127887e-09
1.9038239e-09
1.9351956e-09
-1.9100886e-09
-1.9989457e-09
1.995965e-09
2.0930285e-09
-1.9288973e-09
-2.1904266e-09
1.9958423e-09
2.2645943e-09
-1.9569717e-09
-2.2729654e-09
2.0112709e-09
2.3338419e-09
-2.1040271e-09
-2.46488e-09
2.1503624e-09
2.5174885e-09
-2.2577627e-09
-2.5402218e-09
2.2995353e-09
2.5882777e-09
-2.3061762e-09
-2.7167184e-09
2.3457847e-09
2.7628356e-09
-2.3598818e-09
-2.8795414e-09
2.3989613e-09
2.9253815e-09
-2.4195077e-09
-2.9145838e-09
2.4591368e-09
2.9611721e-09
-2.4867563e-09
-3.0416144e-09
2.5276148e-09
3.0895552e-09
-2.5643511e-09
-3.1486876e-09
2.6068332e-09
3.1982333e-09
-2.5449033e-09
-3.3469522e-09
2.589203e-09
3.3981047e-09
-2.5435305e-09
-3.5267828e-09
2.5897033e-09
3.5793786e-09
-2.5647063e-09
-3.5796036e-09
2.6127049e-09
3.6333717e-09
-2.7238795e-09
-3.730659e-09
2.7735884e-09
3.7852599e-09
-2.3595534e-09
-3.5403208e-09
2.4108156e-09
3.5953792e-09
-2.3631084e-09
-4.3450473e-09
2.4157184e-09
4.4001711e-09
-2.4046594e-09
-4.0424007e-09
2.4583631e-09
4.097171e-09
-2.4862371e-09
-4.8579248e-09
2.5407324e-09
4.9118905e-09
-2.6087437e-09
-3.4700418e-09
2.6636636e-09
3.5227157e-09
-2.7717919e-09
-4.3247719e-09
2.8266901e-09
4.3756124e-09
-2.9735806e-09
-4.1018647e-09
3.0279174e-09
4.1502458e-09
-2.1012384e-09
-3.9199977e-09
2.1543697e-09
3.9652073e-09
-1.2594497e-09
-3.7890116e-09
1.3106263e-09
3.8302729e-09
-2.6608898e-09
-3.7194376e-09
2.709278e-09
3.7559032e-09
-2.9689237e-09
-3.7225479e-09
3.0136522e-09
3.7533476e-09
-2.1742335e-09
-3.8104176e-09
2.2144719e-09
3.8347642e-09
-1.375954e-09
-3.9959133e-09
1.4110431e-09
4.0132393e-09
-1.6725181e-09
-4.29265e-09
1.7021552e-09
4.3028132e-09
-8.3356497e-10
-3.6052863e-09
8.5804527e-10
3.6088388e-09
-2.1772317e-09
-3.0578632e-09
2.1977453e-09
3.0563657e-09
-1.2564969e-09
-3.7740167e-09
1.2754415e-09
3.7703597e-09
-1.394325e-09
-2.4374754e-09
1.4155735e-09
2.4360994e-09
-3.7039581e-10
-3.4946857e-09
3.9937623e-10
3.5015123e-09
-4.0855594e-10
-2.5068613e-09
4.5185993e-10
2.5285818e-09
-1.5206511e-09
-2.7888539e-09
1.5844095e-09
2.8310169e-09
-3.9789093e-10
-2.0971094e-09
4.8462446e-10
2.1604997e-09
-3.8685005e-10
-1.4691273e-09
4.9067313e-10
1.5459964e-09
-3.7070268e-10
-1.7014225e-09
5.0428496e-10
1.7636206e-09
-1.3672494e-10
-1.3921424e-09
1.6976102e-10
1.4543827e-09
-1.0226744e-09
-2.590564e-09
9.0411317e-10
2.681541e-09
-3.0460056e-09
-4.6620548e-09
1.7905694e-09
2.7800208e-09
-6.034219e-09
-5.0541072e-09
5.2907008e-09
4.1887037e-09
-2.3271772e-09
-1.0978053e-09
1.6947727e-09
5.6380284e-10
-4.9337258e-09
-3.4942188e-09
4.1818652e-09
2.9905005e-09
-3.1880377e-09
-2.5083067e-09
2.3114477e-09
2.2103912e-09
-2.657942e-09
-2.3367706e-09
1.9332781e-09
2.1723602e-09
-2.1322743e-09
-2.203773e-09
1.6231834e-09
2.1658269e-09
-1.6562275e-09
-1.9566274e-09
1.3693113e-09
2.0250796e-09
-1.306558e-09
-1.6768529e-09
1.2306687e-09
1.8306063e-09
-1.1160087e-09
-1.4547587e-09
1.2107992e-09
1.6687455e-09
-1.0575911e-09
-1.3378243e-09
1.2659502e-09
1.5842539e-09
-1.0702778e-09
-1.2843921e-09
1.3377084e-09
1.5359226e-09
-1.1246997e-09
-1.2849164e-09
1.409427e-09
1.520663e-09
-1.1908784e-09
-1.3245816e-09
1.4642245e-09
1.5328396e-09
-1.2768559e-09
-1.4787667e-09
1.5213066e-09
1.6548052e-09
-1.3309234e-09
-1.4580833e-09
1.5382193e-09
1.6015563e-09
-1.4521874e-09
-1.5178105e-09
1.6209619e-09
1.6309712e-09
-1.5067729e-09
-1.6318792e-09
1.6401671e-09
1.7187229e-09
-1.7002763e-09
-1.7792952e-09
1.8040273e-09
1.8449348e-09
-1.6904913e-09
-1.9466078e-09
1.7710983e-09
1.9962861e-09
-1.8056907e-09
-2.0152512e-09
1.8691155e-09
2.0535505e-09
-1.8216635e-09
-2.0913903e-09
1.873181e-09
2.1221086e-09
-1.958709e-09
-2.2819412e-09
2.0028372e-09
2.3082008e-09
-2.1042993e-09
-2.3609072e-09
2.144557e-09
2.3851262e-09
-2.1459641e-09
-2.6567869e-09
2.1849405e-09
2.6806941e-09
-2.3044777e-09
-2.721345e-09
2.3439892e-09
2.7461367e-09
-2.2465722e-09
-2.7724574e-09
2.2878279e-09
2.7989892e-09
-2.3057171e-09
-3.0287659e-09
2.3494575e-09
3.0575427e-09
-2.4836058e-09
-3.1551754e-09
2.5302134e-09
3.1864015e-09
-2.4500868e-09
-3.2615957e-09
2.4996828e-09
3.2953138e-09
-2.5415896e-09
-3.3481852e-09
2.5941078e-09
3.3843313e-09
-2.5403588e-09
-3.5272118e-09
2.5956007e-09
3.565651e-09
-2.5618171e-09
-3.6900953e-09
2.619488e-09
3.7306482e-09
-2.610452e-09
-3.7292216e-09
2.6701932e-09
3.771683e-09
-2.3576289e-09
-3.5378466e-09
2.4190438e-09
3.5819901e-09
-3.4714108e-09
-3.2319338e-09
3.5340616e-09
3.277504e-09
-3.5137412e-09
-4.0377471e-09
3.5771481e-09
4.0844639e-09
-2.486644e-09
-3.7426184e-09
2.5502842e-09
3.7901654e-09
-2.610133e-09
-3.4632461e-09
2.6734243e-09
3.5112435e-09
-2.7742526e-09
-4.3169967e-09
2.8365396e-09
4.3649861e-09
-2.9771912e-09
-5.2027646e-09
3.0377282e-09
5.2501885e-09
-2.1060652e-09
-5.0201344e-09
2.1640084e-09
5.0663259e-09
-1.2655397e-09
-3.7789747e-09
1.3199557e-09
3.8231593e-09
-2.668261e-09
-3.7089579e-09
2.7181507e-09
3.7502634e-09
-1.8679923e-09
-4.8213726e-09
1.912349e-09
4.858877e-09
-2.1840292e-09
-3.7996199e-09
2.221948e-09
3.8324433e-09
-1.386732e-09
-3.9852337e-09
1.417573e-09
4.0126743e-09
-1.6839643e-09
-3.172673e-09
1.7075808e-09
3.1944047e-09
-1.9547574e-09
-4.7047655e-09
1.9717964e-09
4.7210996e-09
-1.0788122e-09
-4.1576291e-09
1.0910657e-09
4.1698293e-09
-1.2662673e-09
-2.6547185e-09
1.2770211e-09
2.6653268e-09
-1.401702e-09
-3.536871e-09
1.4159665e-09
3.5499641e-09
-1.4839255e-09
-3.4832983e-09
1.5083014e-09
3.5044943e-09
-1.5179724e-09
-2.4931308e-09
1.5596668e-09
2.5289804e-09
-4.0689104e-10
-2.7715522e-09
4.7100893e-10
2.8277922e-09
-3.9085488e-10
-3.1851508e-09
4.7537897e-10
3.2636542e-09
-3.795688e-10
-2.5563689e-09
4.7008737e-10
2.652205e-09
-3.6503872e-10
-2.7738885e-09
4.273249e-10
2.8660121e-09
-1.4015282e-10
-1.4368622e-09
1.0831942e-10
1.489137e-09
7.2741756e-11
-2.7621212e-09
-1.7259024e-10
2.7700907e-09
-2.3420736e-09
-3.4304747e-09
-3.8456871e-10
1.1597051e-09
-8.9266962e-09
-4.8131637e-09
5.0661705e-09
3.4036222e-09
-5.343741e-09
-1.7722055e-09
2.4890002e-09
6.9763798e-10
-7.0706495e-09
-4.6489145e-09
4.7446203e-09
3.3064778e-09
-4.6122141e-09
-3.5366936e-09
2.5891908e-09
2.4787959e-09
-3.5461495e-09
-3.0383028e-09
1.9434645e-09
2.166251e-09
-2.671047e-09
-2.5881529e-09
1.4819157e-09
1.8964361e-09
-1.9753723e-09
-2.1202645e-09
1.1637324e-09
1.6388477e-09
-1.5003152e-09
-1.7089275e-09
1.0069917e-09
1.4266081e-09
-1.2738025e-09
-1.4243492e-09
1.0227618e-09
1.3042749e-09
-1.1882206e-09
-1.2893089e-09
1.1060569e-09
1.2852636e-09
-1.1890424e-09
-1.233434e-09
1.2136739e-09
1.3023977e-09
-1.2336314e-09
-1.2373524e-09
1.3159455e-09
1.3451885e-09
-1.3024927e-09
-1.2813898e-09
1.4074677e-09
1.4028327e-09
-1.3808181e-09
-1.3942516e-09
1.4865913e-09
1.5123877e-09
-1.5279895e-09
-1.4853562e-09
1.6228204e-09
1.5906825e-09
-1.5218118e-09
-1.5434554e-09
1.6009581e-09
1.6321291e-09
-1.6727243e-09
-1.654035e-09
1.7358738e-09
1.7260767e-09
-1.7428601e-09
-1.7974923e-09
1.7919508e-09
1.8548978e-09
-1.833964e-09
-1.8503576e-09
1.8720552e-09
1.8959869e-09
-1.9413141e-09
-2.0267867e-09
1.9720267e-09
2.0640951e-09
-1.9513733e-09
-2.2109111e-09
1.9779503e-09
2.2433058e-09
-1.9731428e-09
-2.2879763e-09
1.9979998e-09
2.3182174e-09
-2.1156582e-09
-2.4758518e-09
2.1405637e-09
2.5060512e-09
-2.2661294e-09
-2.5482254e-09
2.2923207e-09
2.5799233e-09
-2.3121968e-09
-2.7225498e-09
2.3404814e-09
2.7567267e-09
-2.3642159e-09
-2.8837868e-09
2.3950673e-09
2.9209047e-09
-2.4226304e-09
-2.917673e-09
2.4562799e-09
2.9578969e-09
-2.4890085e-09
-3.0438622e-09
2.5255196e-09
3.0871647e-09
-2.5659771e-09
-3.1503228e-09
2.6052965e-09
3.1964888e-09
-2.5460787e-09
-3.3481421e-09
2.5880756e-09
3.3968325e-09
-2.5443814e-09
-3.5276491e-09
2.5888758e-09
3.5784501e-09
-2.5653233e-09
-3.5802344e-09
2.612097e-09
3.632694e-09
-2.7243277e-09
-3.7311183e-09
2.7731415e-09
3.7847658e-09
-2.3598796e-09
-3.5406552e-09
2.4104868e-09
3.5950177e-09
-2.3633463e-09
-4.3452915e-09
2.4154761e-09
4.3999066e-09
-2.4048333e-09
-4.0425788e-09
2.4581844e-09
4.0969772e-09
-2.4863643e-09
-4.858055e-09
2.5406003e-09
4.9117484e-09
-2.6088371e-09
-3.4701373e-09
2.6635663e-09
3.522612e-09
-2.7718603e-09
-4.3248416e-09
2.8266187e-09
4.3755363e-09
-2.9736308e-09
-4.1019159e-09
3.0278642e-09
4.1501899e-09
-2.1012758e-09
-3.9200353e-09
2.1543299e-09
3.9651661e-09
-1.2594771e-09
-3.7890396e-09
1.3105969e-09
3.8302424e-09
-2.6609095e-09
-3.7194581e-09
2.7092569e-09
3.7558806e-09
-2.9689386e-09
-3.7225629e-09
3.0136361e-09
3.7533313e-09
-2.1742444e-09
-3.8104286e-09
2.21446e-09
3.834752e-09
-1.3759619e-09
-3.9959213e-09
1.4110348e-09
4.0132298e-09
-1.6725244e-09
-4.2926564e-09
1.702149e-09
4.3028064e-09
-8.33569e-10
-3.6052914e-09
8.5804098e-10
3.6088339e-09
-2.1772342e-09
-3.0578666e-09
2.1977417e-09
3.056362e-09
-1.2564989e-09
-3.7740192e-09
1.2754389e-09
3.7703565e-09
-1.3943271e-09
-2.4374775e-09
1.4155717e-09
2.436097e-09
-3.7039724e-10
-3.4946871e-09
3.9937472e-10
3.5015107e-09
-4.0855635e-10
-2.5068625e-09
4.5185906e-10
2.52858e-09
-1.5206515e-09
-2.7888553e-09
1.5844091e-09
2.8310157e-09
-3.9789126e-10
-2.0971103e-09
4.8462399e-10
2.1604987e-09
-3.8685024e-10
-1.4691276e-09
4.9067278e-10
1.5459955e-09
-3.7070278e-10
-1.7014228e-09
5.042847e-10
1.7636203e-09
-1.3672503e-10
-1.3921425e-09
1.6976084e-10
1.4543824e-09
-1.0226745e-09
-2.5905641e-09
9.0411315e-10
2.6815408e-09
-2.627215e-09
-4.6084539e-09
2.1106939e-09
2.9847867e-09
-5.7818315e-09
-4.9716347e-09
5.4761641e-09
4.2723623e-09
-2.2571622e-09
-9.7360016e-10
1.8266828e-09
6.1794451e-10
-4.8900134e-09
-3.3675524e-09
4.3630857e-09
3.0643748e-09
-3.1437071e-09
-2.4006063e-09
2.537665e-09
2.3036813e-09
-2.5671648e-09
-2.2555548e-09
2.1626709e-09
2.2773069e-09
-2.0094162e-09
-2.1417495e-09
1.840471e-09
2.2624088e-09
-1.5218742e-09
-1.912248e-09
1.5616434e-09
2.1015918e-09
-1.1745634e-09
-1.6413099e-09
1.3894295e-09
1.8777281e-09
-9.9784718e-10
-1.4414103e-09
1.3375339e-09
1.7054998e-09
-9.5773213e-10
-1.3324141e-09
1.3638969e-09
1.6039028e-09
-9.8964327e-10
-1.2843313e-09
1.4114094e-09
1.5435419e-09
-1.0619631e-09
-1.288163e-09
1.4635926e-09
1.520443e-09
-1.1545005e-09
-1.329622e-09
1.5142676e-09
1.5277521e-09
-1.2417619e-09
-1.4846415e-09
1.5487608e-09
1.6471545e-09
-1.3054727e-09
-1.4640688e-09
1.5572257e-09
1.5929653e-09
-1.4340073e-09
-1.523346e-09
1.6339042e-09
1.6224701e-09
-1.4939432e-09
-1.6367753e-09
1.6488929e-09
1.7109005e-09
-1.6913071e-09
-1.783538e-09
1.8098568e-09
1.8380713e-09
-1.6842614e-09
-1.9501686e-09
1.7748896e-09
1.9904632e-09
-1.8013789e-09
-2.0181883e-09
1.8715156e-09
2.0487345e-09
-1.8186813e-09
-2.0937742e-09
1.8747014e-09
2.1182063e-09
-1.9566413e-09
-2.2838475e-09
2.0037977e-09
2.3050911e-09
-2.1028577e-09
-2.362411e-09
2.1451604e-09
2.3826771e-09
-2.1449518e-09
-2.657959e-09
2.1853184e-09
2.6787843e-09
-2.3037598e-09
-2.7222481e-09
2.3442258e-09
2.7446694e-09
-2.2460566e-09
-2.7731449e-09
2.2879765e-09
2.7978763e-09
-2.305343e-09
-3.029284e-09
2.3495514e-09
3.0567029e-09
-2.4833317e-09
-3.1555624e-09
2.5302729e-09
3.185771e-09
-2.4498841e-09
-3.2618824e-09
2.499721e-09
3.2948425e-09
-2.5414389e-09
-3.3483952e-09
2.5941323e-09
3.3839809e-09
-2.540246e-09
-3.5273636e-09
2.5956165e-09
3.565392e-09
-2.5617325e-09
-3.6902047e-09
2.6194982e-09
3.7304576e-09
-2.6103886e-09
-3.7292999e-09
2.6701997e-09
3.7715438e-09
-2.3575812e-09
-3.5379014e-09
2.4190478e-09
3.5818893e-09
-3.4713751e-09
-3.2319719e-09
3.534064e-09
3.2774314e-09
-3.5137146e-09
-4.0377732e-09
3.5771493e-09
4.0844116e-09
-2.4866242e-09
-3.7426362e-09
2.5502847e-09
3.7901278e-09
-2.6101184e-09
-3.463258e-09
2.6734245e-09
3.5112169e-09
-2.7742416e-09
-4.3170046e-09
2.8365395e-09
4.3649671e-09
-2.9771831e-09
-5.2027698e-09
3.0377282e-09
5.2501751e-09
-2.1060592e-09
-5.0201378e-09
2.164008e-09
5.0663165e-09
-1.2655349e-09
-3.7789767e-09
1.3199551e-09
3.8231526e-09
-2.6682581e-09
-3.7089592e-09
2.7181501e-09
3.7502587e-09
-1.8679899e-09
-4.8213739e-09
1.9123485e-09
4.8588738e-09
-2.1840271e-09
-3.7996207e-09
2.2219485e-09
3.8324406e-09
-1.3867305e-09
-3.9852339e-09
1.4175731e-09
4.0126719e-09
-1.683963e-09
-3.1726732e-09
1.707581e-09
3.1944034e-09
-1.9547567e-09
-4.7047658e-09
1.971797e-09
4.7210988e-09
-1.0788111e-09
-4.1576294e-09
1.0910655e-09
4.1698287e-09
-1.2662668e-09
-2.6547187e-09
1.2770209e-09
2.6653259e-09
-1.401702e-09
-3.5368712e-09
1.4159668e-09
3.5499632e-09
-1.4839247e-09
-3.4832985e-09
1.5083016e-09
3.5044939e-09
-1.5179718e-09
-2.493131e-09
1.559667e-09
2.5289801e-09
-4.0689082e-10
-2.7715524e-09
4.7100909e-10
2.8277923e-09
-3.9085452e-10
-3.1851509e-09
4.753792e-10
3.2636539e-09
-3.795685e-10
-2.5563691e-09
4.7008754e-10
2.6522043e-09
-3.6503843e-10
-2.7738886e-09
4.2732499e-10
2.8660119e-09
-1.4015258e-10
-1.4368622e-09
1.0831956e-10
1.4891368e-09
7.2741863e-11
-2.7621213e-09
-1.7259012e-10
2.7700905e-09
)
;

boundaryField
{
    movingWall
    {
        type            calculated;
        value           nonuniform List<scalar> 
16
(
-1.0204148e-09
7.2464555e-11
-1.0204149e-09
7.2464653e-11
-2.4240622e-09
-2.6245303e-09
-2.4240624e-09
-2.6245306e-09
8.7490322e-10
-1.720136e-10
8.7490323e-10
-1.7201347e-10
2.5255126e-09
2.617888e-09
2.5255122e-09
2.6178878e-09
)
;
    }
    CPLReceiveMD
    {
        type            calculated;
        value           nonuniform List<scalar> 
16
(
-2.7487808e-08
-6.2216857e-09
-4.4383975e-09
-5.746922e-09
-6.8541796e-09
-8.0079071e-09
-6.6612744e-09
-7.9551184e-09
3.1074459e-09
4.4709116e-09
1.6448456e-09
4.8782643e-09
3.2429165e-09
5.5693817e-09
3.6604737e-09
5.8261422e-09
)
;
    }
    streamwiseIn
    {
        type            cyclic;
    }
    streamwiseOut
    {
        type            cyclic;
    }
    front
    {
        type            cyclic;
    }
    back
    {
        type            cyclic;
    }
}


// ************************************************************************* //
