/*--------------------------------*- C++ -*----------------------------------*\
| =========                 |                                                 |
| \\      /  F ield         | OpenFOAM: The Open Source CFD Toolbox           |
|  \\    /   O peration     | Version:  3.0.x                                 |
|   \\  /    A nd           | Web:      www.OpenFOAM.org                      |
|    \\/     M anipulation  |                                                 |
\*---------------------------------------------------------------------------*/
FoamFile
{
    version     2.0;
    format      ascii;
    class       volScalarField;
    location    "325";
    object      sigmaxx;
}
// * * * * * * * * * * * * * * * * * * * * * * * * * * * * * * * * * * * * * //

dimensions      [0 2 -2 0 0 0 0];

internalField   nonuniform List<scalar> 
960
(
-1.49057e-08
-6.6762068e-09
-1.6033824e-09
4.766544e-09
2.0890601e-08
1.3533172e-08
-2.4028145e-08
-1.4402279e-08
2.6346534e-08
1.8709313e-08
-2.4010217e-08
-2.0195447e-08
3.4276186e-08
2.9748121e-08
-3.2157775e-08
-3.1547428e-08
2.1709478e-08
2.2594777e-08
-2.1433704e-08
-2.3886132e-08
5.7224644e-09
7.477816e-09
-5.4102927e-09
-8.2372904e-09
-4.6342283e-09
-3.8669652e-09
5.0704874e-09
3.5032244e-09
-9.3192204e-09
-9.507384e-09
9.8047614e-09
9.4747999e-09
-1.0836023e-08
-1.1563944e-08
1.1356707e-08
1.1763283e-08
-1.0669693e-08
-1.1707396e-08
1.1208709e-08
1.2046163e-08
-9.4311074e-09
-1.0702965e-08
9.9601759e-09
1.1106746e-08
-7.6113541e-09
-9.1046277e-09
8.103666e-09
9.5205503e-09
-5.6624557e-09
-7.2545325e-09
6.098989e-09
7.6478477e-09
-3.802992e-09
-5.5299464e-09
4.1743649e-09
5.8798267e-09
-2.0234809e-09
-3.9698314e-09
2.3285894e-09
4.266878e-09
-7.6518914e-10
-2.7497597e-09
1.0085015e-09
2.992922e-09
2.1269727e-10
-1.8252198e-09
-2.3415288e-11
2.0189896e-09
1.3737458e-09
-9.4959546e-10
-1.229291e-09
1.1011087e-09
2.2880881e-09
-1.0412158e-10
-2.1791596e-09
2.2109318e-10
3.185381e-09
5.01471e-10
-3.1031702e-09
-4.1135399e-10
4.0692659e-09
1.3181579e-09
-4.0059954e-09
-1.2477371e-09
4.7196257e-09
2.1284005e-09
-4.6691395e-09
-2.0715449e-09
5.3597585e-09
2.7138854e-09
-5.317434e-09
-2.6656615e-09
6.2130854e-09
3.5222478e-09
-6.1754599e-09
-3.4788812e-09
7.0592334e-09
4.1138633e-09
-7.0237961e-09
-4.0725558e-09
7.6774767e-09
4.9368611e-09
-7.6424778e-09
-4.8956682e-09
8.29017e-09
5.7732908e-09
-8.2544462e-09
-5.7310412e-09
8.8967574e-09
6.4044566e-09
-8.8595732e-09
-6.3604861e-09
9.4955888e-09
7.2763739e-09
-9.4565134e-09
-7.2303418e-09
1.0083978e-08
8.1681548e-09
-1.0042798e-08
-8.1200012e-09
1.0436473e-08
9.3015444e-09
-1.0393126e-08
-9.2514076e-09
1.0770843e-08
1.0453318e-08
-1.0725368e-08
-1.0401464e-08
1.108263e-08
1.1399198e-08
-1.1035142e-08
-1.1345971e-08
1.1589261e-08
1.2579685e-08
-1.1539927e-08
-1.252548e-08
1.0955032e-08
1.3102942e-08
-1.0904046e-08
-1.3048173e-08
1.0951513e-08
1.5626933e-08
-1.0899107e-08
-1.5572021e-08
1.0909989e-08
1.5929607e-08
-1.0856435e-08
-1.5874992e-08
1.082843e-08
1.8442783e-08
-1.0774046e-08
-1.8388931e-08
1.0705938e-08
1.6502e-08
-1.06511e-08
-1.644941e-08
1.05429e-08
1.8975961e-08
-1.0488062e-08
-1.8925182e-08
1.0341119e-08
1.9198876e-08
-1.0286827e-08
-1.915054e-08
7.8847867e-09
1.9380748e-08
-7.8316882e-09
-1.9335572e-08
5.3978993e-09
1.9511739e-08
-5.3467468e-09
-1.9470502e-08
7.3251426e-09
1.9581316e-08
-7.2767721e-09
-1.9544869e-08
7.017111e-09
1.9578208e-08
-6.9723955e-09
-1.9547422e-08
4.4831225e-09
1.949034e-08
-4.4428937e-09
-1.9466003e-08
1.952723e-09
1.9304845e-08
-1.9176407e-09
-1.9287527e-08
1.6561599e-09
1.9008109e-08
-1.6265278e-09
-1.8997952e-08
-8.3356667e-10
1.6366793e-08
8.5804337e-10
-1.6363245e-08
1.1514474e-09
1.3585537e-08
-1.1309364e-09
-1.3587038e-08
-1.2564978e-09
1.2869384e-08
1.2754406e-09
-1.2873043e-08
-1.3943256e-09
7.5485646e-09
1.4155728e-09
-7.5499426e-09
-3.6990765e-09
6.4913545e-09
3.7280561e-09
-6.4845295e-09
-3.7372365e-09
8.2181847e-10
3.7805399e-09
-8.0009923e-10
-1.5206513e-09
-2.7888543e-09
1.5844093e-09
2.8310164e-09
-3.7265713e-09
-8.7544703e-09
3.8133046e-09
8.8178599e-09
-3.7155304e-09
-1.4783849e-08
3.8193533e-09
1.4860717e-08
-3.699383e-09
-1.8344824e-08
3.8329652e-09
1.8407022e-08
-3.4654052e-09
-1.8035544e-08
3.4984413e-09
1.8097784e-08
-1.0226743e-09
-1.2576605e-08
9.0411315e-10
1.2667582e-08
-2.1342522e-09
-7.3601377e-09
1.1387882e-09
5.7743485e-09
2.0533176e-08
1.3523686e-08
-2.0931971e-08
-1.4135548e-08
2.2162905e-08
1.9787371e-08
-2.2419458e-08
-2.0101566e-08
3.0424146e-08
3.1051416e-08
-3.0794271e-08
-3.1375976e-08
1.9864462e-08
2.3664601e-08
-2.0381744e-08
-2.3828487e-08
4.2643598e-09
8.0859973e-09
-4.6721868e-09
-8.1592565e-09
-5.7983283e-09
-3.6267531e-09
5.5544525e-09
3.6440049e-09
-1.0176367e-08
-9.4732441e-09
1.010254e-08
9.5696394e-09
-1.1405765e-08
-1.1596013e-08
1.1495455e-08
1.1758581e-08
-1.1034871e-08
-1.177701e-08
1.125478e-08
1.1987436e-08
-9.6614787e-09
-1.0763328e-08
9.9621213e-09
1.0999e-08
-7.756821e-09
-9.1129689e-09
8.0909455e-09
9.3501696e-09
-5.7244861e-09
-7.2495125e-09
6.0565736e-09
7.4698369e-09
-3.8677931e-09
-5.4913106e-09
4.1742678e-09
5.6846148e-09
-2.2618444e-09
-3.8140938e-09
2.5291769e-09
3.9765232e-09
-9.8854418e-10
-2.7940779e-09
1.2114787e-09
2.9256889e-09
2.1875524e-10
-1.8544986e-09
-3.9384162e-11
1.9576097e-09
1.1607399e-09
-9.692957e-10
-1.0202123e-09
1.0478333e-09
2.2973003e-09
-1.1751496e-10
-2.1887689e-09
1.7641661e-10
2.9718534e-09
7.1428839e-10
-2.8880323e-09
-6.6998967e-10
3.8545953e-09
1.3118128e-09
-3.7889978e-09
-1.2777497e-09
4.5039049e-09
1.9017662e-09
-4.4509077e-09
-1.8743438e-09
5.3651521e-09
2.7101085e-09
-5.3200057e-09
-2.6863854e-09
6.2179506e-09
3.2971095e-09
-6.1769838e-09
-3.2748231e-09
6.8418716e-09
4.3328837e-09
-6.8023949e-09
-4.3104355e-09
7.6818559e-09
4.9342029e-09
-7.6419869e-09
-4.9105047e-09
8.0725534e-09
5.5489351e-09
-8.0310393e-09
-5.5232173e-09
8.6790892e-09
6.6241812e-09
-8.6351604e-09
-6.5960061e-09
9.499764e-09
7.4964378e-09
-9.4530181e-09
-7.4656531e-09
9.8661208e-09
8.3886677e-09
-9.8164229e-09
-8.3552711e-09
1.0440332e-08
9.3007164e-09
-1.0387738e-08
-9.2648026e-09
1.0774413e-08
1.0453187e-08
-1.0719116e-08
-1.0414914e-08
1.108581e-08
1.1621793e-08
-1.1028099e-08
-1.1581359e-08
1.1370034e-08
1.2581284e-08
-1.1310263e-08
-1.2538906e-08
1.0957113e-08
1.3105536e-08
-1.0895677e-08
-1.3061451e-08
1.3172006e-08
1.3411455e-08
-1.310934e-08
-1.3365926e-08
1.3129672e-08
1.5934326e-08
-1.3066254e-08
-1.5887638e-08
1.0828086e-08
1.6229458e-08
-1.0764437e-08
-1.6181931e-08
1.0704594e-08
1.6508832e-08
-1.0641297e-08
-1.6460848e-08
1.0540473e-08
1.8983763e-08
-1.0478182e-08
-1.8935783e-08
1.0337533e-08
2.1426676e-08
-1.0276993e-08
-2.1379259e-08
7.8799782e-09
2.1609307e-08
-7.8220328e-09
-2.156312e-08
5.3918229e-09
1.9521787e-08
-5.337405e-09
-1.9477605e-08
7.3177814e-09
1.9591804e-08
-7.2678903e-09
-1.9550501e-08
4.7893694e-09
2.1808069e-08
-4.7450116e-09
-2.1770567e-08
4.4733323e-09
1.9501142e-08
-4.4354126e-09
-1.946832e-08
1.9419491e-09
1.9315528e-08
-1.9111072e-09
-1.9288089e-08
1.6447167e-09
1.6799409e-08
-1.6210994e-09
-1.6777678e-08
1.3739235e-09
1.8595996e-08
-1.3568838e-09
-1.8579663e-08
-1.0788117e-09
1.5814452e-08
1.0910658e-09
-1.5802253e-08
-1.2662669e-09
1.0660003e-08
1.2770213e-09
-1.0649395e-08
-1.4017016e-09
9.77785e-09
1.4159667e-09
-9.7647575e-09
-1.4839252e-09
6.5027425e-09
1.5083016e-09
-6.4815469e-09
-1.5179722e-09
8.3554942e-10
1.559667e-09
-7.9970015e-10
-3.7355711e-09
-2.7715524e-09
3.7996894e-09
2.827792e-09
-3.719535e-09
-6.5138312e-09
3.8040594e-09
6.5923343e-09
-3.7082489e-09
-1.254241e-08
3.7987678e-09
1.2638246e-08
-3.6937189e-09
-1.608861e-08
3.7560053e-09
1.6180733e-08
-3.468833e-09
-1.8080264e-08
3.4369998e-09
1.8132538e-08
-3.2559384e-09
-1.2748162e-08
3.1560901e-09
1.2756131e-08
1.1903148e-10
-7.0218126e-09
-3.6518544e-10
4.5358323e-09
2.1751414e-08
1.379995e-08
-2.0996399e-08
-1.4231278e-08
2.2352925e-08
1.9601244e-08
-2.1499827e-08
-1.9386665e-08
3.102519e-08
3.0646337e-08
-3.0351914e-08
-3.0619877e-08
2.0481151e-08
2.3332229e-08
-2.0120813e-08
-2.3077328e-08
4.7504549e-09
7.9894371e-09
-4.4931096e-09
-7.669672e-09
-5.4556085e-09
-3.5423831e-09
5.7073303e-09
3.8853135e-09
-9.9422571e-09
-9.3166629e-09
1.0240227e-08
9.7021571e-09
-1.1298105e-08
-1.1447137e-08
1.165225e-08
1.1870812e-08
-1.0993317e-08
-1.1667466e-08
1.1383683e-08
1.2109394e-08
-9.6926169e-09
-1.0694538e-08
1.0092078e-08
1.1129785e-08
-7.8157604e-09
-9.090508e-09
8.1998381e-09
9.4977844e-09
-5.793286e-09
-7.2698089e-09
6.1426357e-09
7.6352305e-09
-3.9111032e-09
-5.5471363e-09
4.213744e-09
5.8629932e-09
-2.2920506e-09
-3.9860473e-09
2.5437201e-09
4.2499291e-09
-7.9917785e-10
-2.7636986e-09
1.0014443e-09
2.9777111e-09
1.8803191e-10
-1.8368406e-09
-2.9924523e-11
2.0061861e-09
1.3558966e-09
-9.5908828e-10
-1.2348088e-09
1.0907688e-09
2.2752017e-09
-1.1160662e-10
-2.1836699e-09
2.1297227e-10
3.1760916e-09
4.9553513e-10
-3.1069916e-09
-4.1761591e-10
4.0625804e-09
1.3134703e-09
-4.0092619e-09
-1.2525e-09
4.7148249e-09
2.1248305e-09
-4.6717891e-09
-2.0751238e-09
5.3563203e-09
2.7112139e-09
-5.3194886e-09
-2.66832e-09
6.2106309e-09
3.5202694e-09
-6.1770155e-09
-3.4808282e-09
7.0574842e-09
4.1124107e-09
-7.0249576e-09
-4.0739644e-09
7.6762321e-09
4.9358e-09
-7.643338e-09
-4.8966989e-09
8.2892862e-09
5.7725186e-09
-8.2550791e-09
-5.7318101e-09
8.8961306e-09
6.4038962e-09
-8.8600361e-09
-6.3610545e-09
9.4951446e-09
7.2759674e-09
-9.4568503e-09
-7.2307562e-09
1.0083664e-08
8.1678608e-09
-1.0043042e-08
-8.1203027e-09
1.0436251e-08
9.3013316e-09
-1.0393302e-08
-9.2516255e-09
1.0770687e-08
1.0453164e-08
-1.0725495e-08
-1.0401622e-08
1.1082519e-08
1.1399087e-08
-1.1035234e-08
-1.1346086e-08
1.1589183e-08
1.2579605e-08
-1.1539993e-08
-1.2525562e-08
1.0954977e-08
1.3102885e-08
-1.0904094e-08
-1.3048233e-08
1.0951474e-08
1.5626892e-08
-1.0899141e-08
-1.5572065e-08
1.0909961e-08
1.5929577e-08
-1.085646e-08
-1.5875024e-08
1.0828411e-08
1.8442762e-08
-1.0774064e-08
-1.8388954e-08
1.0705924e-08
1.6501984e-08
-1.0651113e-08
-1.6449426e-08
1.054289e-08
1.897595e-08
-1.0488071e-08
-1.8925194e-08
1.0341112e-08
1.9198868e-08
-1.0286834e-08
-1.9150548e-08
7.8847809e-09
1.9380743e-08
-7.831694e-09
-1.9335578e-08
5.3978951e-09
1.9511734e-08
-5.3467512e-09
-1.9470507e-08
7.3251399e-09
1.9581313e-08
-7.2767748e-09
-1.9544872e-08
7.0171086e-09
1.9578206e-08
-6.972398e-09
-1.9547423e-08
4.4831207e-09
1.9490338e-08
-4.4428957e-09
-1.9466005e-08
1.9527217e-09
1.9304844e-08
-1.9176419e-09
-1.9287528e-08
1.6561583e-09
1.9008109e-08
-1.6265287e-09
-1.8997953e-08
-8.335673e-10
1.6366793e-08
8.5804288e-10
-1.6363245e-08
1.1514473e-09
1.3585536e-08
-1.1309372e-09
-1.3587038e-08
-1.2564981e-09
1.2869384e-08
1.2754399e-09
-1.2873044e-08
-1.3943265e-09
7.5485643e-09
1.4155724e-09
-7.5499428e-09
-3.6990771e-09
6.4913545e-09
3.7280555e-09
-6.4845293e-09
-3.7372363e-09
8.2181838e-10
3.7805397e-09
-8.0009961e-10
-1.5206514e-09
-2.7888549e-09
1.5844093e-09
2.8310163e-09
-3.7265715e-09
-8.7544705e-09
3.8133044e-09
8.8178597e-09
-3.7155305e-09
-1.4783849e-08
3.8193532e-09
1.4860717e-08
-3.6993831e-09
-1.8344824e-08
3.8329651e-09
1.8407022e-08
-3.4654053e-09
-1.8035544e-08
3.4984412e-09
1.8097784e-08
-1.0226745e-09
-1.2576605e-08
9.0411317e-10
1.2667582e-08
-1.9412019e-09
-7.6024142e-09
1.1647086e-09
5.6825023e-09
2.0443643e-08
1.333235e-08
-2.1094034e-08
-1.4285164e-08
2.1858145e-08
1.969314e-08
-2.2664476e-08
-2.0268602e-08
3.0087129e-08
3.0990495e-08
-3.0995792e-08
-3.1472831e-08
1.9573147e-08
2.3620193e-08
-2.0538498e-08
-2.3851148e-08
4.0416188e-09
8.0726704e-09
-4.7629496e-09
-8.1420695e-09
-5.9394107e-09
-3.61805e-09
5.5052503e-09
3.6835114e-09
-1.0254285e-08
-9.4579097e-09
1.0080965e-08
9.6193104e-09
-1.1446879e-08
-1.1594372e-08
1.1496167e-08
1.1821974e-08
-1.1051066e-08
-1.1756977e-08
1.1265635e-08
1.2024628e-08
-9.6629821e-09
-1.0747241e-08
9.9768634e-09
1.1029487e-08
-7.7509684e-09
-9.100552e-09
8.1060406e-09
9.3740923e-09
-5.7159079e-09
-7.2402424e-09
6.0701772e-09
7.4879446e-09
-3.836761e-09
-5.4845937e-09
4.1633996e-09
5.6976777e-09
-2.2539816e-09
-3.8094668e-09
2.5380986e-09
3.9855889e-09
-9.8211584e-10
-2.7910184e-09
1.2182302e-09
2.931777e-09
2.2373036e-10
-1.8523939e-09
-3.4430078e-11
1.9615677e-09
1.1644325e-09
-9.678866e-10
-1.0166163e-09
1.0503179e-09
2.299949e-09
-1.1663793e-10
-2.1861798e-09
1.7790918e-10
2.9736988e-09
7.1482374e-10
-2.8862847e-09
-6.6914955e-10
3.8558482e-09
1.3121083e-09
-3.7878841e-09
-1.2773259e-09
4.5047355e-09
1.901902e-09
-4.450195e-09
-1.874174e-09
5.3656909e-09
2.7101436e-09
-5.3195527e-09
-2.6863636e-09
6.2182939e-09
3.2970853e-09
-6.1767003e-09
-3.2748865e-09
6.8420861e-09
4.3328277e-09
-6.8022199e-09
-4.3105433e-09
7.6819884e-09
4.9341333e-09
-7.64188e-09
-4.9106185e-09
8.0726357e-09
5.548864e-09
-8.0309742e-09
-5.5233187e-09
8.6791406e-09
6.6241146e-09
-8.6351207e-09
-6.5960941e-09
9.4997966e-09
7.4963783e-09
-9.4529938e-09
-7.4657283e-09
9.8661425e-09
8.3886162e-09
-9.8164075e-09
-8.3553347e-09
1.0440346e-08
9.3006735e-09
-1.0387728e-08
-9.2648553e-09
1.0774424e-08
1.0453152e-08
-1.0719109e-08
-1.0414957e-08
1.1085819e-08
1.1621765e-08
-1.1028094e-08
-1.1581394e-08
1.137004e-08
1.2581262e-08
-1.1310259e-08
-1.2538934e-08
1.0957119e-08
1.3105519e-08
-1.0895674e-08
-1.3061472e-08
1.3172011e-08
1.3411442e-08
-1.3109337e-08
-1.3365942e-08
1.3129675e-08
1.5934317e-08
-1.3066252e-08
-1.588765e-08
1.0828089e-08
1.6229451e-08
-1.0764436e-08
-1.618194e-08
1.0704597e-08
1.6508827e-08
-1.0641296e-08
-1.6460855e-08
1.0540475e-08
1.898376e-08
-1.0478181e-08
-1.8935788e-08
1.0337535e-08
2.1426674e-08
-1.0276993e-08
-2.1379262e-08
7.8799792e-09
2.1609305e-08
-7.8220326e-09
-2.1563122e-08
5.3918237e-09
1.9521786e-08
-5.3374054e-09
-1.9477607e-08
7.3177813e-09
1.9591803e-08
-7.2678907e-09
-1.9550502e-08
4.7893695e-09
2.1808069e-08
-4.745012e-09
-2.1770567e-08
4.4733326e-09
1.9501142e-08
-4.4354122e-09
-1.946832e-08
1.941949e-09
1.9315528e-08
-1.9111073e-09
-1.9288089e-08
1.6447167e-09
1.6799409e-08
-1.6210995e-09
-1.6777678e-08
1.373923e-09
1.8595997e-08
-1.3568834e-09
-1.8579663e-08
-1.0788116e-09
1.5814453e-08
1.0910653e-09
-1.5802253e-08
-1.2662672e-09
1.0660003e-08
1.2770207e-09
-1.0649395e-08
-1.4017023e-09
9.7778502e-09
1.4159666e-09
-9.7647577e-09
-1.483925e-09
6.5027426e-09
1.5083014e-09
-6.4815467e-09
-1.5179721e-09
8.355495e-10
1.5596668e-09
-7.9969993e-10
-3.7355713e-09
-2.7715522e-09
3.7996892e-09
2.8277925e-09
-3.719535e-09
-6.5138311e-09
3.8040594e-09
6.5923344e-09
-3.708249e-09
-1.254241e-08
3.7987677e-09
1.2638245e-08
-3.6937189e-09
-1.608861e-08
3.7560052e-09
1.6180733e-08
-3.468833e-09
-1.8080264e-08
3.4369998e-09
1.8132538e-08
-3.2559385e-09
-1.2748162e-08
3.1560902e-09
1.2756132e-08
)
;

boundaryField
{
    movingWall
    {
        type            calculated;
        value           nonuniform List<scalar> 
16
(
-1.0204147e-09
-3.2562156e-09
-1.0204149e-09
-3.2562157e-09
-1.2410103e-08
-1.2610571e-08
-1.2410103e-08
-1.2610571e-08
8.749032e-10
3.1566668e-09
8.7490325e-10
3.1566668e-09
1.2511553e-08
1.2603929e-08
1.2511553e-08
1.2603929e-08
)
;
    }
    CPLReceiveMD
    {
        type            calculated;
        value           nonuniform List<scalar> 
16
(
-2.7518977e-08
-5.3099323e-09
-1.9772925e-09
-5.0609089e-09
-1.0219784e-08
-1.070599e-08
-1.0252612e-08
-1.0949079e-08
6.58126e-10
3.8191303e-09
1.6642288e-09
3.932279e-09
6.8237311e-09
8.5637094e-09
7.0366009e-09
8.5238578e-09
)
;
    }
    streamwiseIn
    {
        type            cyclic;
    }
    streamwiseOut
    {
        type            cyclic;
    }
    front
    {
        type            cyclic;
    }
    back
    {
        type            cyclic;
    }
}


// ************************************************************************* //
