/*--------------------------------*- C++ -*----------------------------------*\
| =========                 |                                                 |
| \\      /  F ield         | OpenFOAM: The Open Source CFD Toolbox           |
|  \\    /   O peration     | Version:  3.0.x                                 |
|   \\  /    A nd           | Web:      www.OpenFOAM.org                      |
|    \\/     M anipulation  |                                                 |
\*---------------------------------------------------------------------------*/
FoamFile
{
    version     2.0;
    format      ascii;
    class       volScalarField;
    location    "325";
    object      sigmaxz;
}
// * * * * * * * * * * * * * * * * * * * * * * * * * * * * * * * * * * * * * //

dimensions      [0 2 -2 0 0 0 0];

internalField   nonuniform List<scalar> 
960
(
-2.505695e-11
1.0841838e-10
8.413549e-12
-1.0841838e-10
-2.8219989e-11
1.0056119e-10
2.8219989e-11
-1.0056119e-10
-2.780429e-11
7.6828719e-11
2.946863e-11
-7.6828719e-11
-3.1179521e-11
4.1860082e-11
3.1179521e-11
-5.8503484e-11
-2.8767186e-11
1.4237428e-11
2.8767186e-11
-3.0880829e-11
-1.9124205e-11
1.3312221e-11
1.9124206e-11
-1.1647881e-11
-1.2951945e-11
3.6473515e-12
1.1287605e-11
-3.6473515e-12
-8.8783868e-12
-2.2920976e-12
7.2140466e-12
6.2775748e-13
-2.0500771e-12
-1.8825035e-12
1.8693479e-11
1.8825036e-12
-7.8096027e-13
-2.3095328e-12
7.8096027e-13
2.3095329e-12
2.0056314e-14
-2.2697073e-12
-2.0056314e-14
2.2697073e-12
4.9339251e-13
-2.0220108e-12
-4.9339251e-13
2.0220105e-12
7.263714e-13
-1.6995436e-12
-7.263714e-13
1.6995439e-12
7.9913422e-13
-1.376003e-12
-7.991348e-13
1.8019404e-11
7.7683601e-13
-1.0873322e-12
-7.7683601e-13
1.0873328e-12
7.042789e-13
-8.4592733e-13
-7.0428006e-13
8.4592849e-13
6.0236266e-13
-6.5210949e-13
-6.0236266e-13
6.5210891e-13
5.0022456e-13
-5.0089768e-13
-5.0022456e-13
5.0089885e-13
4.0453703e-13
-3.8501795e-13
-4.0453586e-13
3.8501795e-13
3.2085639e-13
-2.9259135e-13
-3.2085639e-13
2.9259251e-13
2.5088192e-13
-2.2156146e-13
-2.5088192e-13
2.2156262e-13
1.9403623e-13
-1.6799012e-13
-1.9403623e-13
1.6799012e-13
1.4877983e-13
-1.2767672e-13
-1.4877983e-13
1.2767672e-13
1.1325668e-13
-9.7320263e-14
-1.1325668e-13
9.7320263e-14
8.573357e-14
-7.4375909e-14
-8.5735898e-14
7.4375909e-14
6.5004356e-14
-5.6971596e-14
-6.5004356e-14
5.6969268e-14
4.9397291e-14
-4.3715218e-14
-4.9397291e-14
4.3715218e-14
3.7531508e-14
-3.3574101e-14
-3.7531508e-14
3.3574101e-14
2.8479986e-14
-2.5787957e-14
-2.8479986e-14
2.5787957e-14
2.1576918e-14
-1.9789092e-14
-2.1576918e-14
1.9793748e-14
1.6318624e-14
-1.5172671e-14
-1.6318624e-14
1.5172671e-14
1.2316753e-14
-1.1608585e-14
-1.2321409e-14
1.1608585e-14
9.2710998e-15
-8.8620376e-15
-9.2710998e-15
8.8620376e-15
6.9589096e-15
-6.7493816e-15
-6.9542534e-15
6.7493816e-15
5.2283693e-15
-5.1225268e-15
-5.2283693e-15
5.127183e-15
3.9219415e-15
-3.8807317e-15
-3.9219415e-15
3.8853878e-15
2.9343444e-15
-2.9282695e-15
-2.9343444e-15
2.9282695e-15
2.1896144e-15
-2.215908e-15
-2.1803021e-15
2.215908e-15
1.6296968e-15
-1.6681985e-15
-1.6296968e-15
1.6681985e-15
1.2108415e-15
-1.2539131e-15
-1.2108415e-15
1.2539131e-15
8.9869638e-16
-9.409888e-16
-8.9869638e-16
9.409888e-16
6.6611468e-16
-6.9526528e-16
-6.6611468e-16
7.0457755e-16
4.9341881e-16
-5.2782532e-16
-4.9341881e-16
5.2782532e-16
3.6600772e-16
-3.9668077e-16
-3.6600772e-16
3.9668077e-16
2.7202112e-16
-2.907136e-16
-2.7202112e-16
3.0002588e-16
2.1165235e-16
-2.2813063e-16
-2.0234008e-16
2.2813063e-16
1.5179717e-16
-1.5495893e-16
-1.5179717e-16
1.7358347e-16
1.1552315e-16
-1.1313397e-16
-1.1552315e-16
1.3175852e-16
8.9062957e-17
-9.8996856e-17
-8.9062957e-17
9.8996856e-17
7.0008501e-17
-5.5455112e-17
-7.0008501e-17
7.4079655e-17
3.7230674e-17
-5.6260562e-17
-5.5855217e-17
7.4885106e-17
4.3580825e-17
-4.3655789e-17
-4.3580825e-17
4.3655789e-17
3.2637943e-17
-3.2902986e-17
-3.2637943e-17
3.2902986e-17
2.2831959e-17
-2.5762126e-17
-2.2831959e-17
2.5762126e-17
1.6964112e-17
-1.1531682e-18
-1.6964112e-17
1.1531682e-18
1.3861753e-17
2.4255975e-18
4.7627904e-18
1.6198946e-17
1.1903271e-17
5.0626579e-18
6.7212727e-18
1.3561886e-17
1.0632011e-17
-1.2247516e-17
-1.0632011e-17
1.2247516e-17
1.0783847e-17
-1.3207236e-17
-1.0783847e-17
1.3207236e-17
1.2595168e-17
-1.5697315e-17
-1.2595168e-17
1.5697315e-17
3.8977674e-11
-9.1001167e-10
-5.5621075e-11
9.2665507e-10
4.1279763e-11
-1.7192624e-09
-5.7923165e-11
1.702619e-09
3.8871987e-11
-1.2310481e-09
-4.0536327e-11
1.2310481e-09
2.9550812e-11
-9.2238228e-10
-1.2907411e-11
9.0573888e-10
2.4548067e-11
-6.6661617e-10
-7.9046654e-12
6.6661617e-10
6.5310455e-12
-4.7611115e-10
-6.5310455e-12
4.7611115e-10
-1.3857463e-13
-3.3625287e-10
1.3857463e-13
3.3791721e-10
-3.5880211e-12
-2.3620219e-10
5.2523612e-12
2.3620219e-10
-2.6528101e-12
-1.6519635e-10
1.9296212e-11
1.6519635e-10
-2.7442289e-12
-1.0605854e-10
2.7442289e-12
1.0605854e-10
-2.4944148e-12
-7.1183788e-11
2.4944148e-12
8.782719e-11
-2.0554351e-12
-5.8606982e-11
1.8698837e-11
5.8606982e-11
-1.5953699e-12
-3.3420207e-11
1.5953702e-12
3.3420206e-11
-1.1911749e-12
-2.7680621e-11
1.1911755e-12
2.7680622e-11
-8.6217813e-13
-7.2116979e-12
8.6217813e-13
1.7364571e-10
-6.0668877e-13
-4.6789299e-12
6.0668935e-13
4.6789293e-12
-4.2653368e-13
-3.0115098e-12
4.2653426e-13
3.0115104e-12
-3.0435472e-13
-1.9197238e-12
3.0435472e-13
1.9197238e-12
-2.1728926e-13
-1.2124557e-12
2.1728809e-13
1.2124557e-12
-1.6422211e-13
-7.6535381e-13
1.6422211e-13
7.6535381e-13
-1.2712896e-13
-4.8353076e-13
1.2712896e-13
4.8353076e-13
-9.9382577e-14
-3.0411356e-13
9.9383741e-14
3.0411356e-13
-7.8308436e-14
-1.8954469e-13
7.8308436e-14
1.8954236e-13
-6.2095564e-14
-1.1667792e-13
6.2093236e-14
1.1667792e-13
-4.9348301e-14
-7.0541959e-14
4.9348301e-14
7.0541959e-14
-3.8472354e-14
-4.1602446e-14
3.8472354e-14
4.1604774e-14
-2.9343066e-14
-2.3673092e-14
2.9343066e-14
2.3673092e-14
-2.2256056e-14
-1.2739375e-14
2.2256056e-14
1.2739375e-14
-1.6858934e-14
-6.2118167e-15
1.6858934e-14
6.2118167e-15
-1.2756518e-14
-2.4387127e-15
1.2756518e-14
2.4387127e-15
-9.6411746e-15
-3.6150633e-16
9.6411746e-15
3.6150633e-16
-7.2787437e-15
6.9260184e-16
7.2833998e-15
-6.9260184e-16
-5.4940334e-15
1.148453e-15
5.4940334e-15
-1.148453e-15
-4.1439706e-15
1.2671361e-15
4.1439706e-15
-1.2717922e-15
-3.0926802e-15
1.2177977e-15
3.0926802e-15
-1.2177977e-15
-2.2987983e-15
1.0825451e-15
2.3034544e-15
-1.0825451e-15
-1.7056541e-15
9.1986416e-16
1.7056541e-15
-9.1055189e-16
-1.2642526e-15
7.5838056e-16
1.2642526e-15
-7.5838056e-16
-9.3668797e-16
6.1262047e-16
9.3668797e-16
-6.1262047e-16
-6.9390002e-16
4.8808256e-16
6.9390002e-16
-4.8808256e-16
-5.1460998e-16
3.8470074e-16
5.1460998e-16
-3.8470074e-16
-3.7308586e-16
3.008155e-16
3.8239813e-16
-3.008155e-16
-2.8605014e-16
2.3346115e-16
2.8605014e-16
-2.3346115e-16
-2.1518786e-16
1.8064398e-16
2.1518786e-16
-1.8064398e-16
-1.6277754e-16
1.3942584e-16
1.6277754e-16
-1.3942584e-16
-1.2457866e-16
1.0704064e-16
1.2457866e-16
-1.0704064e-16
-9.7519881e-17
8.2099137e-17
9.7519881e-17
-8.2099137e-17
-7.7626456e-17
6.2854704e-17
7.7626456e-17
-6.2854704e-17
-6.3205481e-17
6.6637328e-17
6.3205481e-17
-4.8012785e-17
-5.1537275e-17
3.6860574e-17
5.1537275e-17
-3.6860574e-17
-2.4556379e-17
2.7922635e-17
4.3180922e-17
-4.6547178e-17
-3.7038409e-17
2.12288e-17
3.7038409e-17
-2.12288e-17
-1.3373012e-17
3.5342619e-17
3.1997555e-17
-1.6718075e-17
-2.9144537e-17
3.1999374e-17
2.9144537e-17
-1.3374831e-17
-8.838422e-18
1.1263231e-17
2.7462966e-17
-1.1263231e-17
-2.6168525e-17
9.7081493e-18
7.5439814e-18
-9.7081493e-18
-2.4660751e-17
1.0180416e-17
6.0362074e-18
-1.0180416e-17
-2.255792e-17
3.0068784e-17
3.9333769e-18
-1.144424e-17
-1.8686041e-17
1.3787872e-17
1.8686041e-17
-1.3787872e-17
-1.4079292e-17
1.5150037e-17
1.4079292e-17
-1.5150037e-17
2.5056951e-11
-1.0841838e-10
-8.413549e-12
1.0841838e-10
2.8219989e-11
-1.0056119e-10
-2.8219989e-11
1.0056119e-10
2.780429e-11
-7.6828719e-11
-2.946863e-11
7.6828719e-11
3.1179521e-11
-4.1860082e-11
-3.1179521e-11
5.8503484e-11
2.8767186e-11
-1.4237428e-11
-2.8767186e-11
3.088083e-11
1.9124205e-11
-1.3312221e-11
-1.9124205e-11
1.1647881e-11
1.2951945e-11
-3.6473515e-12
-1.1287605e-11
3.6473515e-12
8.8783868e-12
2.2920977e-12
-7.2140466e-12
-6.2775748e-13
2.0500771e-12
1.8825035e-12
-1.8693479e-11
-1.8825035e-12
7.8096027e-13
2.3095329e-12
-7.8096027e-13
-2.3095329e-12
-2.0056314e-14
2.2697073e-12
2.0056314e-14
-2.2697073e-12
-4.9339251e-13
2.0220105e-12
4.9339251e-13
-2.0220105e-12
-7.263714e-13
1.6995439e-12
7.263714e-13
-1.6995439e-12
-7.9913422e-13
1.376003e-12
7.9913422e-13
-1.8019405e-11
-7.7683543e-13
1.0873316e-12
7.7683601e-13
-1.0873328e-12
-7.0427948e-13
8.4592791e-13
7.0427948e-13
-8.4592849e-13
-6.0236325e-13
6.5210949e-13
6.0236266e-13
-6.5210949e-13
-5.0022456e-13
5.0089885e-13
5.0022456e-13
-5.0090001e-13
-4.0453586e-13
3.8501795e-13
4.0453586e-13
-3.8501795e-13
-3.2085639e-13
2.9259251e-13
3.2085639e-13
-2.9259251e-13
-2.5088192e-13
2.2156262e-13
2.5088192e-13
-2.2156262e-13
-1.9403623e-13
1.6799012e-13
1.9403623e-13
-1.6799012e-13
-1.4877983e-13
1.2767905e-13
1.4877983e-13
-1.2767672e-13
-1.1325668e-13
9.7320263e-14
1.1325668e-13
-9.7320263e-14
-8.5735898e-14
7.4375909e-14
8.5735898e-14
-7.4375909e-14
-6.5004356e-14
5.6971596e-14
6.5004356e-14
-5.6971596e-14
-4.9397291e-14
4.3715218e-14
4.9397291e-14
-4.3715218e-14
-3.7531508e-14
3.3574101e-14
3.7531508e-14
-3.3576429e-14
-2.8479986e-14
2.5787957e-14
2.8479986e-14
-2.5787957e-14
-2.1576918e-14
1.9793748e-14
2.1576918e-14
-1.9793748e-14
-1.6318624e-14
1.5172671e-14
1.6318624e-14
-1.5172671e-14
-1.2316753e-14
1.1608585e-14
1.2316753e-14
-1.1608585e-14
-9.2710998e-15
8.8620375e-15
9.2710998e-15
-8.8620375e-15
-6.9589096e-15
6.7540378e-15
6.9589096e-15
-6.7493816e-15
-5.2283693e-15
5.127183e-15
5.2283693e-15
-5.127183e-15
-3.9219415e-15
3.8853878e-15
3.9219415e-15
-3.8853878e-15
-2.9343444e-15
2.9375818e-15
2.9343444e-15
-2.9375818e-15
-2.1896144e-15
2.215908e-15
2.1896144e-15
-2.215908e-15
-1.6296968e-15
1.6681985e-15
1.6296968e-15
-1.6681985e-15
-1.2108415e-15
1.2539131e-15
1.2108415e-15
-1.2539131e-15
-8.9869638e-16
9.409888e-16
8.9869638e-16
-9.409888e-16
-6.7542695e-16
7.0457755e-16
6.6611468e-16
-7.0457755e-16
-4.934188e-16
5.2782531e-16
4.934188e-16
-5.2782531e-16
-3.6600772e-16
3.9668077e-16
3.6600772e-16
-3.9668077e-16
-2.7202112e-16
3.0002588e-16
2.7202112e-16
-3.0002588e-16
-2.0234008e-16
2.2813063e-16
2.0234008e-16
-2.2813063e-16
-1.5179717e-16
1.7358347e-16
1.5179717e-16
-1.7358347e-16
-1.1552315e-16
1.3175852e-16
1.1552315e-16
-1.3175852e-16
-8.9062956e-17
9.8996856e-17
8.9062956e-17
-9.8996856e-17
-7.0008499e-17
7.4079657e-17
7.0008499e-17
-7.4079657e-17
-7.4479759e-17
7.4885106e-17
5.5855215e-17
-3.7636019e-17
-4.3580825e-17
4.3655789e-17
4.3580825e-17
-4.3655789e-17
-3.2637943e-17
1.4278443e-17
3.2637943e-17
-3.2902986e-17
-2.2831959e-17
2.5762126e-17
2.2831959e-17
-2.5762126e-17
-1.696411e-17
1.9777712e-17
1.696411e-17
-1.1531682e-18
-1.386175e-17
1.6198946e-17
1.386175e-17
-1.6198946e-17
-1.1903271e-17
1.3561887e-17
1.1903271e-17
-1.3561887e-17
-1.063201e-17
-6.3770289e-18
1.063201e-17
-1.2247515e-17
-1.0783846e-17
1.3207236e-17
1.0783846e-17
-1.3207236e-17
-1.2595168e-17
1.5697315e-17
1.2595168e-17
-1.5697315e-17
-3.8977674e-11
9.1001167e-10
5.5621075e-11
-9.2665507e-10
-4.1279763e-11
1.7192624e-09
5.7923165e-11
-1.702619e-09
-3.8871987e-11
1.2310481e-09
4.0536327e-11
-1.2310481e-09
-2.9550812e-11
9.2238228e-10
1.2907411e-11
-9.0573888e-10
-2.4548067e-11
6.6661617e-10
7.9046654e-12
-6.6661617e-10
-6.5310456e-12
4.7611115e-10
6.5310455e-12
-4.7611115e-10
1.3857463e-13
3.3625287e-10
-1.3857463e-13
-3.3791721e-10
3.5880211e-12
2.3620219e-10
-5.2523612e-12
-2.3620219e-10
2.6528101e-12
1.6519635e-10
-1.9296211e-11
-1.6519635e-10
2.7442291e-12
1.0605854e-10
-2.7442289e-12
-1.0605854e-10
2.4944148e-12
7.1183788e-11
-2.4944148e-12
-8.782719e-11
2.0554351e-12
5.8606982e-11
-1.8698837e-11
-5.8606982e-11
1.5953702e-12
3.3420206e-11
-1.5953702e-12
-3.3420206e-11
1.1911749e-12
2.7680621e-11
-1.1911749e-12
-2.7680621e-11
8.6217813e-13
7.2116985e-12
-8.6217813e-13
-1.7364571e-10
6.0668935e-13
4.6789293e-12
-6.0668877e-13
-4.6789293e-12
4.2653485e-13
3.0115098e-12
-4.2653426e-13
-3.0115098e-12
3.0435472e-13
1.9197238e-12
-3.0435472e-13
-1.9197227e-12
2.1728926e-13
1.2124557e-12
-2.1728809e-13
-1.2124557e-12
1.6422327e-13
7.6535381e-13
-1.6422211e-13
-7.6535264e-13
1.2712896e-13
4.8353076e-13
-1.2712896e-13
-4.8353076e-13
9.9383741e-14
3.0411356e-13
-9.9383741e-14
-3.0411356e-13
7.8308436e-14
1.8954236e-13
-7.8308436e-14
-1.8954236e-13
6.2095564e-14
1.1667792e-13
-6.2093236e-14
-1.1667792e-13
4.9350629e-14
7.0541959e-14
-4.9348301e-14
-7.0541959e-14
3.8474682e-14
4.1602446e-14
-3.8472354e-14
-4.1602446e-14
2.9345394e-14
2.3673092e-14
-2.9340738e-14
-2.3670764e-14
2.2258384e-14
1.2739375e-14
-2.2256056e-14
-1.2737047e-14
1.6858934e-14
6.2118167e-15
-1.6858934e-14
-6.2118167e-15
1.2756518e-14
2.438711e-15
-1.2756518e-14
-2.4340549e-15
9.6411746e-15
3.6150633e-16
-9.6411746e-15
-3.6150633e-16
7.2787437e-15
-6.9260184e-16
-7.2787437e-15
6.9260184e-16
5.4986896e-15
-1.148453e-15
-5.4940334e-15
1.148453e-15
4.1439706e-15
-1.2717922e-15
-4.1439706e-15
1.2717922e-15
3.0926802e-15
-1.2177977e-15
-3.0926802e-15
1.2177977e-15
2.3034544e-15
-1.0825451e-15
-2.2987983e-15
1.0872012e-15
1.7056541e-15
-9.1986416e-16
-1.7056541e-15
9.1986416e-16
1.2642526e-15
-7.5838056e-16
-1.2642526e-15
7.5838056e-16
9.3668797e-16
-6.1262047e-16
-9.3668797e-16
6.2193275e-16
6.9390002e-16
-4.8808256e-16
-6.9390002e-16
4.8808256e-16
5.2392225e-16
-3.8470074e-16
-5.0529771e-16
3.9401301e-16
3.917104e-16
-3.008155e-16
-3.8239813e-16
3.008155e-16
2.9536241e-16
-2.3346115e-16
-2.8605014e-16
2.3346115e-16
2.1518786e-16
-1.8064398e-16
-2.1518786e-16
1.8064398e-16
1.6277754e-16
-1.3942584e-16
-1.6277754e-16
1.3942584e-16
1.2457864e-16
-1.0704064e-16
-1.2457864e-16
1.1635291e-16
9.7519881e-17
-8.2099137e-17
-9.7519881e-17
8.2099137e-17
7.7626456e-17
-6.2854704e-17
-7.7626456e-17
6.2854704e-17
6.3205481e-17
-4.8012785e-17
-6.3205481e-17
6.6637328e-17
5.1537275e-17
-3.6860574e-17
-5.1537275e-17
5.5485118e-17
6.1805466e-17
-4.6547178e-17
-4.3180922e-17
2.7922635e-17
3.7038409e-17
-2.12288e-17
-3.7038409e-17
2.12288e-17
3.1997555e-17
-1.6718074e-17
-3.1997555e-17
3.5342617e-17
4.776908e-17
-1.3374831e-17
-2.9144537e-17
1.3374831e-17
2.7462966e-17
-1.1263231e-17
-2.7462966e-17
1.1263231e-17
2.6168527e-17
-9.7081493e-18
-7.5439831e-18
9.7081493e-18
2.4660751e-17
-1.0180416e-17
-2.4660751e-17
1.0180416e-17
2.255792e-17
-1.144424e-17
-3.9333769e-18
1.144424e-17
1.8686041e-17
-1.3787872e-17
-1.8686041e-17
1.3787872e-17
1.4079292e-17
-1.5150037e-17
4.5452512e-18
3.3774581e-17
)
;

boundaryField
{
    movingWall
    {
        type            calculated;
        value           nonuniform List<scalar> 
16
(
1.2595168e-17
-1.4079292e-17
-1.2595168e-17
1.4079292e-17
-1.5697315e-17
1.5150037e-17
1.5697315e-17
-1.5150037e-17
-1.2595168e-17
1.4079292e-17
1.2595168e-17
4.5452512e-18
1.5697315e-17
-1.5150037e-17
-1.5697315e-17
3.3774581e-17
)
;
    }
    CPLReceiveMD
    {
        type            calculated;
        value           nonuniform List<scalar> 
16
(
-2.505695e-11
3.8977674e-11
2.5056951e-11
-3.8977674e-11
1.0841838e-10
-9.1001167e-10
-1.0841838e-10
9.1001167e-10
8.413549e-12
-5.5621075e-11
-8.413549e-12
5.5621075e-11
-1.0841838e-10
9.2665507e-10
1.0841838e-10
-9.2665507e-10
)
;
    }
    streamwiseIn
    {
        type            cyclic;
    }
    streamwiseOut
    {
        type            cyclic;
    }
    front
    {
        type            cyclic;
    }
    back
    {
        type            cyclic;
    }
}


// ************************************************************************* //
