/*--------------------------------*- C++ -*----------------------------------*\
| =========                 |                                                 |
| \\      /  F ield         | OpenFOAM: The Open Source CFD Toolbox           |
|  \\    /   O peration     | Version:  3.0.x                                 |
|   \\  /    A nd           | Web:      www.OpenFOAM.org                      |
|    \\/     M anipulation  |                                                 |
\*---------------------------------------------------------------------------*/
FoamFile
{
    version     2.0;
    format      ascii;
    class       volScalarField;
    location    "325";
    object      sigmayy;
}
// * * * * * * * * * * * * * * * * * * * * * * * * * * * * * * * * * * * * * //

dimensions      [0 2 -2 0 0 0 0];

internalField   nonuniform List<scalar> 
960
(
2.9780231e-08
9.9868097e-09
7.5744491e-10
-5.9522735e-09
-1.5705314e-08
-9.4301294e-09
1.7364861e-08
1.019013e-08
-2.8701986e-08
-1.7340019e-08
2.0321512e-08
1.9023141e-08
-3.3450533e-08
-2.558823e-08
2.6214404e-08
2.7817947e-08
-2.0712473e-08
-1.9631762e-08
1.7777564e-08
2.0901673e-08
-5.0087941e-09
-5.1192039e-09
2.5244204e-09
5.4463356e-09
5.046146e-09
5.7456073e-09
-7.3595174e-09
-6.0527728e-09
9.5624825e-09
1.0949167e-08
-1.1643174e-08
-1.175091e-08
1.1031738e-08
1.2661008e-08
-1.2920576e-08
-1.3765681e-08
1.0953673e-08
1.262065e-08
-1.267311e-08
-1.3860187e-08
9.8910395e-09
1.1571387e-08
-1.1430802e-08
-1.2818242e-08
8.2684105e-09
9.9888036e-09
-9.6124804e-09
-1.1158962e-08
6.4976876e-09
8.2254045e-09
-7.6377897e-09
-9.2696204e-09
4.8221323e-09
6.604497e-09
-5.762544e-09
-7.4986715e-09
3.2938542e-09
5.2055701e-09
-4.0499675e-09
-5.9454089e-09
2.1330387e-09
4.1149175e-09
-2.7270991e-09
-4.7099285e-09
1.193442e-09
3.2780887e-09
-1.6509671e-09
-3.7463001e-09
2.1551194e-10
2.5357163e-09
-5.623601e-10
-2.8983816e-09
-6.0540528e-10
1.8510378e-09
3.4510716e-10
-2.1289411e-09
-1.3947766e-09
1.3113177e-09
1.1993462e-09
-1.5238416e-09
-2.1591773e-09
6.8078781e-10
2.0100304e-09
-8.4529142e-10
-2.7907283e-09
6.2026109e-11
2.6732972e-09
-1.9304933e-10
-3.4027867e-09
-4.4092001e-10
3.3061631e-09
3.3181954e-10
-4.1090583e-09
-1.0573678e-09
4.0250975e-09
9.6139266e-10
-4.8014707e-09
-1.5736414e-09
4.7242608e-09
1.4842781e-09
-5.3713005e-09
-2.2201427e-09
5.2966931e-09
2.1328326e-09
-5.9302882e-09
-2.8937494e-09
5.8554849e-09
2.8056598e-09
-6.4772498e-09
-3.4898728e-09
6.4004364e-09
3.399314e-09
-7.0088325e-09
-4.2347594e-09
6.9288985e-09
4.1407866e-09
-7.519627e-09
-5.0194672e-09
7.4359649e-09
4.9217679e-09
-7.8915697e-09
-5.9545922e-09
7.8039226e-09
5.8533029e-09
-8.227313e-09
-6.9265355e-09
8.1356646e-09
6.8220854e-09
-8.5179232e-09
-7.8195944e-09
8.4224375e-09
7.7125997e-09
-8.865381e-09
-8.8490258e-09
8.7663388e-09
8.7402198e-09
-8.5954787e-09
-9.5626214e-09
8.4932305e-09
9.452794e-09
-8.5884048e-09
-1.1281886e-08
8.4833884e-09
1.117185e-08
-8.5053291e-09
-1.1887206e-08
8.3980719e-09
1.1777821e-08
-8.3421932e-09
-1.3584858e-08
8.2333132e-09
1.3477041e-08
-8.0971942e-09
-1.3031958e-08
7.9874361e-09
1.2926694e-08
-7.7711081e-09
-1.4651189e-08
7.6613721e-09
1.4549569e-08
-7.3675385e-09
-1.5097011e-08
7.2589095e-09
1.5000294e-08
-5.7835482e-09
-1.5460751e-08
5.6773185e-09
1.5370365e-08
-4.1384495e-09
-1.5722727e-08
4.0361204e-09
1.5640229e-08
-4.6642527e-09
-1.5861878e-08
4.5674942e-09
1.5788965e-08
-4.0481874e-09
-1.585566e-08
3.9587434e-09
1.5794074e-08
-2.308889e-09
-1.5679922e-08
2.2284218e-09
1.5631239e-08
-5.76769e-10
-1.5308932e-08
5.0659759e-10
1.5274288e-08
1.6358258e-11
-1.4715459e-08
-7.5627369e-11
1.4695139e-08
1.6671316e-09
-1.2761507e-08
-1.7160886e-09
1.2754406e-08
1.0257843e-09
-1.0527673e-08
-1.0668089e-09
1.0530672e-08
2.5129947e-09
-9.095367e-09
-2.5508821e-09
9.1026835e-09
2.7886505e-09
-5.1110892e-09
-2.8311462e-09
5.1138433e-09
4.0694723e-09
-2.9966688e-09
-4.1274323e-09
2.9830172e-09
4.1457924e-09
1.6850428e-09
-4.2323999e-09
-1.7284826e-09
3.0413024e-09
5.5777082e-09
-3.1688188e-09
-5.6620333e-09
4.1244622e-09
1.085158e-08
-4.297929e-09
-1.097836e-08
4.1023805e-09
1.6252976e-08
-4.3100265e-09
-1.6406714e-08
4.0700857e-09
2.0046247e-08
-4.3372502e-09
-2.0170642e-08
3.6021302e-09
1.9427686e-08
-3.6682023e-09
-1.9552167e-08
2.0453487e-09
1.5167169e-08
-1.8082263e-09
-1.5349123e-08
5.1802578e-09
1.2022193e-08
-2.9293576e-09
-8.5543693e-09
-1.4498956e-08
-8.4695791e-09
1.564127e-08
9.9468441e-09
-1.9835728e-08
-1.8689566e-08
2.0724685e-08
1.9537764e-08
-2.549042e-08
-2.7557197e-08
2.6612406e-08
2.8385475e-08
-1.6676424e-08
-2.1156294e-08
1.8070296e-08
2.1618096e-08
-1.6064178e-09
-5.7492267e-09
2.7389086e-09
5.9868963e-09
7.9306026e-09
5.8305261e-09
-7.1776359e-09
-5.8098318e-09
1.1832594e-08
1.1429871e-08
-1.1471851e-08
-1.1594719e-08
1.2712324e-08
1.3272865e-08
-1.2726123e-08
-1.3589188e-08
1.215088e-08
1.3231769e-08
-1.2465579e-08
-1.3656181e-08
1.071907e-08
1.2101153e-08
-1.1228071e-08
-1.2583254e-08
8.8270988e-09
1.0397361e-08
-9.4286539e-09
-1.0886092e-08
6.8491858e-09
8.534429e-09
-7.4660005e-09
-8.9904998e-09
5.0586715e-09
6.8158922e-09
-5.6384923e-09
-7.2174544e-09
3.5387004e-09
5.2928604e-09
-4.0504835e-09
-5.6313284e-09
2.3194675e-09
4.2521612e-09
-2.749698e-09
-4.5272453e-09
1.2334322e-09
3.372309e-09
-1.5815777e-09
-3.588581e-09
3.4603303e-10
2.6011748e-09
-6.1995477e-10
-2.7665562e-09
-5.9702397e-10
1.8968102e-09
3.8474163e-10
-2.0213514e-09
-1.2813622e-09
1.2323194e-09
1.116934e-09
-1.3262964e-09
-2.0489046e-09
7.0343838e-10
1.9198823e-09
-7.7580071e-10
-2.6822415e-09
1.8962414e-10
2.5777267e-09
-2.4776478e-10
-3.4064432e-09
-4.2816732e-10
3.3171685e-09
3.7818459e-10
-4.1136513e-09
-9.3620228e-10
4.0324268e-09
8.8969689e-10
-4.6959075e-09
-1.6760968e-09
4.6174544e-09
1.6297414e-09
-5.3773782e-09
-2.2128579e-09
5.2979977e-09
2.164368e-09
-5.8259811e-09
-2.7764776e-09
5.7432114e-09
2.7242281e-09
-6.3733721e-09
-3.5954153e-09
6.2857028e-09
3.5384634e-09
-7.0161582e-09
-4.3412624e-09
6.9228046e-09
4.2792517e-09
-7.416034e-09
-5.127072e-09
7.31674e-09
5.0599573e-09
-7.8987419e-09
-5.9525312e-09
7.7936303e-09
5.8804713e-09
-8.2340546e-09
-6.9259749e-09
8.1235153e-09
6.8492633e-09
-8.523993e-09
-7.931698e-09
8.4086107e-09
7.8507109e-09
-8.7595815e-09
-8.8520622e-09
8.6400695e-09
8.7672233e-09
-8.5994844e-09
-9.5676894e-09
8.476633e-09
9.4794612e-09
-9.7005954e-09
-1.0179521e-08
9.5752782e-09
1.0088422e-08
-9.6159306e-09
-1.1896579e-08
9.4891056e-09
1.1803174e-08
-8.3414416e-09
-1.248684e-08
8.2141533e-09
1.2391765e-08
-8.0944614e-09
-1.3045586e-08
7.967873e-09
1.2949605e-08
-7.7662207e-09
-1.4666766e-08
7.6416424e-09
1.4570797e-08
-7.3603423e-09
-1.6223912e-08
7.2392651e-09
1.612907e-08
-5.773913e-09
-1.6589173e-08
5.6580244e-09
1.6496794e-08
-4.1262832e-09
-1.5742812e-08
4.0174493e-09
1.5654446e-08
-4.6495204e-09
-1.5882846e-08
4.5497396e-09
1.5800237e-08
-2.9213771e-09
-1.6986697e-08
2.8326626e-09
1.691169e-08
-2.2893031e-09
-1.5701522e-08
2.2134646e-09
1.5635876e-08
-5.5521705e-10
-1.5330295e-08
4.9353426e-10
1.5275414e-08
3.9247593e-11
-1.3626736e-08
-8.6481448e-11
1.3583273e-08
5.8083399e-10
-1.3891231e-08
-6.1491262e-10
1.3858563e-08
2.1576239e-09
-1.1656823e-08
-2.1821315e-09
1.1632424e-08
2.5325343e-09
-8.005284e-09
-2.5540424e-09
7.9840679e-09
2.8034036e-09
-6.2409791e-09
-2.8319333e-09
6.2147934e-09
2.9678507e-09
-3.0194442e-09
-3.0166029e-09
2.9770527e-09
3.0359446e-09
1.6575814e-09
-3.1193338e-09
-1.7292803e-09
4.1424621e-09
5.5431045e-09
-4.2706983e-09
-5.6555841e-09
4.1103899e-09
9.6989819e-09
-4.2794384e-09
-9.8559885e-09
4.0878177e-09
1.5098779e-08
-4.2688552e-09
-1.5290451e-08
4.0587577e-09
1.8862498e-08
-4.1833302e-09
-1.9046745e-08
3.6089858e-09
1.9517126e-08
-3.5453192e-09
-1.9621675e-08
3.1831966e-09
1.5510283e-08
-2.9834999e-09
-1.5526222e-08
2.2230421e-09
1.0452287e-08
7.4975415e-10
-5.6955373e-09
-1.2824718e-08
-8.9867861e-09
1.5930229e-08
1.0827656e-08
-1.7009184e-08
-1.7829039e-08
1.9010826e-08
1.8689027e-08
-2.395454e-08
-2.5997422e-08
2.5607294e-08
2.7313399e-08
-1.5868937e-08
-1.9795535e-08
1.7531623e-08
2.0598532e-08
-1.2043054e-09
-4.9511343e-09
2.5496451e-09
5.5034209e-09
8.1266555e-09
6.130536e-09
-7.189246e-09
-5.7817497e-09
1.1917629e-08
1.1436927e-08
-1.1403959e-08
-1.1341005e-08
1.279842e-08
1.3156064e-08
-1.2659242e-08
-1.3297421e-08
1.226712e-08
1.3091815e-08
-1.2406445e-08
-1.3413669e-08
1.0880838e-08
1.1983847e-08
-1.1198135e-08
-1.2415048e-08
9.0048028e-09
1.0323942e-08
-9.413512e-09
-1.0800182e-08
7.0269175e-09
8.5071613e-09
-7.4585811e-09
-8.980419e-09
5.2135959e-09
6.8285261e-09
-5.6212117e-09
-7.2658259e-09
3.6728687e-09
5.3802989e-09
-4.0303114e-09
-5.7623167e-09
2.3271674e-09
4.2490548e-09
-2.6242647e-09
-4.5683936e-09
1.3337799e-09
3.380296e-09
-1.5710336e-09
-3.6383152e-09
3.1682768e-10
2.6131233e-09
-5.01065e-10
-2.8168455e-09
-5.3234159e-10
1.9090989e-09
3.9171908e-10
-2.06787e-09
-1.3421276e-09
1.3548224e-09
1.2349365e-09
-1.478371e-09
-2.1212663e-09
7.1331641e-10
2.0372351e-09
-8.1159511e-10
-2.7634516e-09
8.6080619e-11
2.6938388e-09
-1.6818203e-10
-3.3831776e-09
-4.2323766e-10
3.3214888e-09
3.501026e-10
-4.0949727e-09
-1.0444176e-09
4.0364518e-09
9.7477699e-10
-4.7913548e-09
-1.5641853e-09
4.7326369e-09
1.4940411e-09
-5.3640353e-09
-2.2132502e-09
5.3028566e-09
2.1399722e-09
-5.9250703e-09
-2.8887318e-09
5.8600118e-09
2.8109054e-09
-6.4735002e-09
-3.4862232e-09
6.4037562e-09
3.4031576e-09
-7.006136e-09
-4.2321052e-09
6.9313306e-09
4.1435915e-09
-7.5176868e-09
-5.017538e-09
7.4377459e-09
4.9238139e-09
-7.8901726e-09
-5.9531894e-09
7.8052266e-09
5.854793e-09
-8.2263057e-09
-6.9255152e-09
8.1366196e-09
6.8231718e-09
-8.517196e-09
-7.8188523e-09
8.4231372e-09
7.7133916e-09
-8.8648552e-09
-8.8484864e-09
8.7668518e-09
8.7407958e-09
-8.5950978e-09
-9.5622296e-09
8.493607e-09
9.4532151e-09
-8.5881282e-09
-1.12816e-08
8.4836652e-09
1.1172158e-08
-8.5051278e-09
-1.1886998e-08
8.3982755e-09
1.1778047e-08
-8.3420464e-09
-1.3584707e-08
8.2334636e-09
1.3477206e-08
-8.0970866e-09
-1.3031847e-08
7.9875466e-09
1.2926814e-08
-7.7710297e-09
-1.4651108e-08
7.6614527e-09
1.4549657e-08
-7.3674811e-09
-1.5096952e-08
7.2589697e-09
1.5000359e-08
-5.7835051e-09
-1.5460708e-08
5.6773641e-09
1.5370412e-08
-4.138418e-09
-1.5722695e-08
4.0361543e-09
1.5640264e-08
-4.6642303e-09
-1.5861855e-08
4.5675179e-09
1.5788991e-08
-4.04817e-09
-1.5855643e-08
3.958762e-09
1.5794092e-08
-2.3088763e-09
-1.567991e-08
2.2284357e-09
1.5631253e-08
-5.7675976e-10
-1.5308923e-08
5.0660706e-10
1.5274298e-08
1.6366018e-11
-1.4715452e-08
-7.5620335e-11
1.4695146e-08
1.6671363e-09
-1.2761501e-08
-1.7160839e-09
1.2754412e-08
1.0257869e-09
-1.052767e-08
-1.0668045e-09
1.0530676e-08
2.512997e-09
-9.0953644e-09
-2.5508788e-09
9.1026871e-09
2.7886536e-09
-5.1110869e-09
-2.831144e-09
5.1138458e-09
4.0694744e-09
-2.9966674e-09
-4.1274302e-09
2.9830186e-09
4.1457927e-09
1.6850441e-09
-4.2323988e-09
-1.7284804e-09
3.0413029e-09
5.5777102e-09
-3.1688184e-09
-5.6620321e-09
4.1244628e-09
1.0851581e-08
-4.2979284e-09
-1.0978358e-08
4.1023808e-09
1.6252976e-08
-4.310026e-09
-1.6406712e-08
4.0700859e-09
2.0046247e-08
-4.3372498e-09
-2.0170642e-08
3.6021304e-09
1.9427686e-08
-3.6682021e-09
-1.9552167e-08
2.0453489e-09
1.5167169e-08
-1.8082263e-09
-1.5349123e-08
4.5684169e-09
1.2210868e-08
-3.2754025e-09
-8.667289e-09
-1.4661812e-08
-8.3607148e-09
1.5617869e-08
1.0012801e-08
-1.9600983e-08
-1.871954e-08
2.0837793e-08
1.9650658e-08
-2.5197116e-08
-2.7622942e-08
2.6632707e-08
2.8408456e-08
-1.642944e-08
-2.1219587e-08
1.8000833e-08
2.1547466e-08
-1.474454e-09
-5.8171156e-09
2.6002787e-09
5.8647626e-09
7.9488269e-09
5.7597995e-09
-7.3457213e-09
-5.9459202e-09
1.1776159e-08
1.1370158e-08
-1.1642608e-08
-1.1720902e-08
1.2621443e-08
1.3235681e-08
-1.2885597e-08
-1.3699702e-08
1.2048913e-08
1.3198387e-08
-1.2603169e-08
-1.3730127e-08
1.0620714e-08
1.2079655e-08
-1.134076e-08
-1.263339e-08
8.7406117e-09
1.0384883e-08
-9.51745e-09
-1.0917634e-08
6.7778709e-09
8.5284055e-09
-7.5337698e-09
-9.0083876e-09
4.9912615e-09
6.8142156e-09
-5.6776672e-09
-7.2254298e-09
3.4957435e-09
5.2941083e-09
-4.0868594e-09
-5.6327434e-09
2.2875886e-09
4.2550872e-09
-2.775456e-09
-4.5247423e-09
1.2102769e-09
3.3757399e-09
-1.5994741e-09
-3.5840378e-09
3.2951065e-10
2.6046619e-09
-6.3227663e-10
-2.7612184e-09
-6.0864192e-10
1.9001759e-09
3.7632297e-10
-2.0159804e-09
-1.2894374e-09
1.2353448e-09
1.1113951e-09
-1.3213137e-09
-2.0544693e-09
7.0608001e-10
1.9163685e-09
-7.7140862e-10
-2.6860542e-09
1.9187222e-10
2.5754936e-09
-2.440323e-10
-3.4090496e-09
-4.2629607e-10
3.315755e-09
3.8127248e-10
-4.1154362e-09
-9.3467429e-10
4.0315399e-09
8.922094e-10
-4.6971343e-09
-1.6748688e-09
4.6169015e-09
1.631759e-09
-5.3782286e-09
-2.2118852e-09
5.2976542e-09
2.1659491e-09
-5.8265791e-09
-2.7757191e-09
5.7429977e-09
2.7254424e-09
-6.3737976e-09
-3.5948306e-09
6.2855693e-09
3.5393912e-09
-7.0164648e-09
-4.340816e-09
6.9227209e-09
4.2799572e-09
-7.4162584e-09
-5.1267338e-09
7.3166866e-09
5.0604922e-09
-7.8989075e-09
-5.9522782e-09
7.7935957e-09
5.8808744e-09
-8.2341783e-09
-6.9257887e-09
8.1234926e-09
6.8495652e-09
-8.5240861e-09
-7.9315607e-09
8.4085954e-09
7.8509364e-09
-8.7596518e-09
-8.8519616e-09
8.6400592e-09
8.76739e-09
-8.5995377e-09
-9.5676177e-09
8.476626e-09
9.4795829e-09
-9.7006357e-09
-1.017947e-08
9.5752734e-09
1.008851e-08
-9.6159609e-09
-1.1896544e-08
9.4891025e-09
1.1803239e-08
-8.3414643e-09
-1.2486815e-08
8.2141515e-09
1.2391812e-08
-8.0944783e-09
-1.3045569e-08
7.9678716e-09
1.2949638e-08
-7.7662334e-09
-1.4666755e-08
7.6416418e-09
1.4570821e-08
-7.3603516e-09
-1.6223904e-08
7.2392645e-09
1.6129087e-08
-5.77392e-09
-1.6589168e-08
5.6580246e-09
1.6496806e-08
-4.1262888e-09
-1.5742809e-08
4.0174503e-09
1.5654454e-08
-4.6495231e-09
-1.5882844e-08
4.5497405e-09
1.5800243e-08
-2.9213796e-09
-1.6986695e-08
2.8326635e-09
1.6911693e-08
-2.2893055e-09
-1.5701521e-08
2.2134637e-09
1.563588e-08
-5.5521845e-10
-1.5330294e-08
4.935342e-10
1.5275417e-08
3.9246276e-11
-1.3626735e-08
-8.6481532e-11
1.3583274e-08
5.8083365e-10
-1.3891231e-08
-6.149136e-10
1.3858564e-08
2.1576227e-09
-1.1656823e-08
-2.1821307e-09
1.1632424e-08
2.532534e-09
-8.0052839e-09
-2.5540416e-09
7.984069e-09
2.8034043e-09
-6.240979e-09
-2.8319334e-09
6.2147945e-09
2.9678496e-09
-3.0194441e-09
-3.016603e-09
2.9770529e-09
3.0359438e-09
1.6575815e-09
-3.1193338e-09
-1.7292802e-09
4.1424621e-09
5.5431046e-09
-4.2706983e-09
-5.6555849e-09
4.1103896e-09
9.698982e-09
-4.2794386e-09
-9.8559884e-09
4.0878175e-09
1.5098779e-08
-4.2688553e-09
-1.529045e-08
4.0587574e-09
1.8862498e-08
-4.1833302e-09
-1.9046745e-08
3.6089856e-09
1.9517126e-08
-3.5453193e-09
-1.9621675e-08
3.1831967e-09
1.5510283e-08
-2.9835001e-09
-1.5526222e-08
)
;

boundaryField
{
    movingWall
    {
        type            calculated;
        value           nonuniform List<scalar> 
16
(
2.0408295e-09
3.183751e-09
2.0408297e-09
3.1837511e-09
1.4834165e-08
1.5235102e-08
1.4834166e-08
1.5235102e-08
-1.7498064e-09
-2.9846532e-09
-1.7498065e-09
-2.9846533e-09
-1.5037066e-08
-1.5221817e-08
-1.5037065e-08
-1.5221817e-08
)
;
    }
    CPLReceiveMD
    {
        type            calculated;
        value           nonuniform List<scalar> 
16
(
5.5006785e-08
1.1531618e-08
6.41569e-09
1.0807831e-08
1.7073963e-08
1.8713897e-08
1.6913887e-08
1.8904197e-08
-3.7655719e-09
-8.290042e-09
-3.3090744e-09
-8.8105433e-09
-1.0066648e-08
-1.4133091e-08
-1.0697075e-08
-1.435e-08
)
;
    }
    streamwiseIn
    {
        type            cyclic;
    }
    streamwiseOut
    {
        type            cyclic;
    }
    front
    {
        type            cyclic;
    }
    back
    {
        type            cyclic;
    }
}


// ************************************************************************* //
