/*--------------------------------*- C++ -*----------------------------------*\
| =========                 |                                                 |
| \\      /  F ield         | OpenFOAM: The Open Source CFD Toolbox           |
|  \\    /   O peration     | Version:  3.0.x                                 |
|   \\  /    A nd           | Web:      www.OpenFOAM.org                      |
|    \\/     M anipulation  |                                                 |
\*---------------------------------------------------------------------------*/
FoamFile
{
    version     2.0;
    format      ascii;
    class       volScalarField;
    location    "325";
    object      sigmayz;
}
// * * * * * * * * * * * * * * * * * * * * * * * * * * * * * * * * * * * * * //

dimensions      [0 2 -2 0 0 0 0];

internalField   nonuniform List<scalar> 
960
(
1.2037925e-10
2.2046082e-10
5.301544e-10
3.1692263e-10
1.8668892e-10
-8.7474577e-11
2.5952609e-11
-3.1928865e-11
1.4012273e-10
-8.4808752e-11
-6.1033454e-11
-6.2046024e-11
8.0992501e-11
-7.6323248e-11
-1.1282606e-10
-9.5711176e-11
9.1376937e-12
-6.5988541e-11
-1.3852e-10
-1.0887417e-10
-4.5028784e-11
-5.5238283e-11
-1.4256311e-10
-1.0148201e-10
-7.4268919e-11
-4.2067432e-11
-1.323156e-10
-8.3763364e-11
-8.3656966e-11
-2.9342609e-11
-1.1452773e-10
-6.305287e-11
-8.06827e-11
-1.9051055e-11
-9.4161102e-11
-4.3714195e-11
-7.1221471e-11
-1.1272524e-11
-7.4376677e-11
-2.7722176e-11
-5.9126476e-11
-5.6658635e-12
-5.6893519e-11
-1.5793863e-11
-4.6844367e-11
-1.8477087e-12
-4.2347596e-11
-7.4627078e-12
-3.5872146e-11
5.8083938e-13
-3.0761141e-11
-1.8516432e-12
-2.6719889e-11
1.9911417e-12
-2.1869825e-11
1.5871576e-12
-1.9458666e-11
2.6868544e-12
-1.5256495e-11
3.4372629e-12
-1.3917266e-11
2.8369236e-12
-1.0465328e-11
4.2203555e-12
-9.8080491e-12
2.7171353e-12
-7.0707128e-12
4.3357971e-12
-6.8303986e-12
2.5004713e-12
-4.7109262e-12
4.069951e-12
-4.7149077e-12
2.1921511e-12
-3.0615657e-12
3.6151467e-12
-3.2357161e-12
1.8728169e-12
-1.9381169e-12
3.0919079e-12
-2.21507e-12
1.5645602e-12
-1.2257768e-12
2.5708099e-12
-1.517749e-12
1.2816772e-12
-7.7218391e-13
2.0918035e-12
-1.0449046e-12
1.0323916e-12
-4.8351048e-13
1.6731845e-12
-7.2508302e-13
8.1916518e-13
-3.016881e-13
1.3193391e-12
-5.0876114e-13
6.4139459e-13
-1.8836139e-13
1.0241168e-12
-3.618019e-13
4.9583811e-13
-1.1812873e-13
7.8401339e-13
-2.6081301e-13
3.7906668e-13
-7.4756941e-14
5.9710703e-13
-1.9033117e-13
2.8680886e-13
-4.7786592e-14
4.5253695e-13
-1.4066633e-13
2.1483916e-13
-3.1039093e-14
3.4123348e-13
-1.0486453e-13
1.5927441e-13
-2.0463497e-14
2.5563624e-13
-7.8765897e-14
1.1680036e-13
-1.3661987e-14
1.9033127e-13
-5.9394875e-14
8.4852169e-14
-9.2029303e-15
1.407812e-13
-4.4827154e-14
6.1109511e-14
-6.1704738e-15
1.0350925e-13
-3.3797939e-14
4.3305645e-14
-4.0786497e-15
7.5326897e-14
-2.5398556e-14
3.0364102e-14
-2.6154156e-15
5.4566001e-14
-1.8983013e-14
2.1035763e-14
-1.555789e-15
3.9293478e-14
-1.409996e-14
1.4361914e-14
-8.172639e-16
2.8226888e-14
-1.0426868e-14
9.6663216e-15
-3.130794e-16
2.0003273e-14
-7.6434624e-15
6.3580614e-15
2.1993988e-18
1.4153523e-14
-5.6106481e-15
4.1490199e-15
2.710977e-16
9.9293056e-15
-4.0158139e-15
2.6207197e-15
3.2786768e-16
6.9294683e-15
-2.9564556e-15
1.5999619e-15
5.1395898e-16
4.822717e-15
-2.0474125e-15
9.4264033e-16
3.3951476e-16
3.3485839e-15
-1.4184626e-15
6.0553348e-16
3.1773012e-16
2.3163208e-15
-1.2088981e-15
3.139325e-16
1.2572962e-16
1.629184e-15
-7.3347458e-16
7.7400477e-17
1.0118047e-16
1.2202456e-15
-6.3711263e-16
4.3829683e-17
2.4464241e-16
7.2123094e-16
-4.0390493e-16
2.8032131e-17
5.8526265e-17
4.4342704e-16
-3.5471357e-16
2.1539573e-17
2.0705318e-16
3.685986e-16
-3.1388964e-16
1.8070847e-17
1.8857748e-16
3.1628987e-16
-1.1684287e-16
1.4983646e-17
3.8943244e-18
2.8629596e-16
-2.6671479e-16
1.2288204e-17
-7.5861745e-18
1.0442602e-16
-2.495714e-16
7.9086804e-18
-1.2126343e-17
9.0250607e-17
-6.7013459e-17
1.0390944e-17
-1.4925773e-17
7.2592582e-17
-1.0565821e-16
1.8039381e-17
-3.4419898e-17
5.3637667e-17
-7.9825541e-17
2.4780856e-17
-3.8514617e-17
2.1129883e-16
-6.2873577e-17
3.5665729e-17
-3.0548916e-17
4.8482968e-17
-6.1359309e-17
4.7903953e-17
-5.9951882e-17
5.2346389e-17
-2.5647477e-17
6.0063332e-17
-7.2624813e-17
5.2272538e-17
-2.4712126e-16
1.3811782e-16
-1.457282e-16
2.142541e-16
3.7355641e-09
4.6454534e-10
9.5224049e-10
2.6187893e-10
-2.2873335e-09
8.3950561e-10
3.3541019e-10
8.4718102e-10
-4.1605666e-09
1.7304107e-10
-1.0354134e-10
2.650199e-10
-2.7525091e-09
-1.0025987e-10
-2.3621141e-10
-8.4244517e-14
-2.1930654e-09
-2.7350614e-10
-2.9583322e-10
-1.9688141e-10
-1.7358006e-09
-3.5855457e-10
-3.053515e-10
-2.9486004e-10
-1.3234989e-09
-3.8271363e-10
-2.9018579e-10
-3.4194396e-10
-9.9855552e-10
-3.6503196e-10
-2.6339904e-10
-3.4487594e-10
-7.5240149e-10
-3.2556794e-10
-2.3078683e-10
-3.1882595e-10
-5.6329034e-10
-2.7714759e-10
-1.9641847e-10
-2.7819291e-10
-4.1721307e-10
-2.2795082e-10
-1.6338839e-10
-2.3323983e-10
-3.0601054e-10
-1.8260976e-10
-1.3328477e-10
-1.896026e-10
-2.2304834e-10
-1.4338164e-10
-1.0683464e-10
-1.5012887e-10
-1.6195056e-10
-1.1085666e-10
-8.4388285e-11
-1.1658839e-10
-1.1727578e-10
-8.4688706e-11
-6.5832861e-11
-8.9259761e-11
-8.4764886e-11
-6.4190602e-11
-5.0834558e-11
-6.7595446e-11
-6.118711e-11
-4.8396361e-11
-3.8922679e-11
-5.0755387e-11
-4.4123451e-11
-3.622903e-11
-2.9620027e-11
-3.7858474e-11
-3.1793948e-11
-2.7005729e-11
-2.2494257e-11
-2.8094102e-11
-2.289433e-11
-2.0064891e-11
-1.7025749e-11
-2.076238e-11
-1.6473781e-11
-1.4789143e-11
-1.2762977e-11
-1.5289952e-11
-1.1846694e-11
-1.0850069e-11
-9.4838387e-12
-1.1226891e-11
-8.5151731e-12
-7.9367406e-12
-7.0105643e-12
-8.2246945e-12
-6.1195048e-12
-5.7926752e-12
-5.1650921e-12
-6.0166179e-12
-4.3983838e-12
-4.2214702e-12
-3.7970374e-12
-4.4044184e-12
-3.1619994e-12
-3.0736685e-12
-2.7870976e-12
-3.2289533e-12
-2.2743039e-12
-2.2364338e-12
-2.0435898e-12
-2.3627016e-12
-1.6369418e-12
-1.6268614e-12
-1.4974115e-12
-1.7240048e-12
-1.1792013e-12
-1.1831303e-12
-1.0969642e-12
-1.2572783e-12
-8.5033682e-13
-8.6042062e-13
-8.0370258e-13
-9.1669237e-13
-6.140465e-13
-6.2583863e-13
-5.8912068e-13
-6.6838144e-13
-4.4413702e-13
-4.5519313e-13
-4.3213647e-13
-4.8762873e-13
-3.2186448e-13
-3.3116538e-13
-3.1728582e-13
-3.5558898e-13
-2.3376446e-13
-2.4095584e-13
-2.3324294e-13
-2.5980593e-13
-1.701787e-13
-1.7547926e-13
-1.7171197e-13
-1.899585e-13
-1.2418441e-13
-1.2789929e-13
-1.2658173e-13
-1.387296e-13
-9.0835336e-14
-9.3129774e-14
-9.3419969e-14
-1.0139622e-13
-6.6592209e-14
-6.8065226e-14
-6.9059761e-14
-7.3946248e-14
-4.8928151e-14
-4.9579916e-14
-5.0999433e-14
-5.4073577e-14
-3.5984097e-14
-3.6248725e-14
-3.7887201e-14
-3.9554796e-14
-2.6591708e-14
-2.6513662e-14
-2.8167048e-14
-2.8964827e-14
-1.9617103e-14
-1.9430893e-14
-2.0883034e-14
-2.1220034e-14
-1.4391225e-14
-1.4271798e-14
-1.5367428e-14
-1.5584465e-14
-1.0668974e-14
-1.0406561e-14
-1.1375021e-14
-1.1395071e-14
-7.9364044e-15
-7.7000287e-15
-8.5613675e-15
-8.3924796e-15
-5.733944e-15
-5.6984983e-15
-6.1278791e-15
-6.2903415e-15
-4.3018899e-15
-4.2956083e-15
-4.6436759e-15
-4.6483722e-15
-3.0702073e-15
-3.2511217e-15
-3.3719131e-15
-3.3872985e-15
-2.1512992e-15
-2.348714e-15
-2.587325e-15
-2.618683e-15
-1.6716753e-15
-1.7196979e-15
-1.9178371e-15
-1.9655994e-15
-1.2733636e-15
-1.3342549e-15
-1.3353983e-15
-1.5582277e-15
-9.4192018e-16
-9.9980921e-16
-9.863855e-16
-1.0441904e-15
-4.8979628e-16
-7.0690592e-16
-6.873988e-16
-9.0466679e-16
-3.9926748e-16
-6.1835892e-16
-4.2091505e-16
-6.3635445e-16
-3.1697064e-16
-3.8641414e-16
-3.4816528e-16
-3.9822445e-16
-2.2011764e-16
-1.7072939e-16
-2.410582e-16
-3.4828399e-16
-1.5147345e-16
-1.3716497e-16
-1.4458377e-16
-1.5149366e-16
-1.1138083e-16
-1.1619056e-16
-8.0421233e-17
-1.3990121e-16
-9.1910131e-17
-1.2357777e-16
-4.3916863e-17
-1.5722523e-16
3.4939254e-17
-2.4229334e-16
-6.4921853e-17
-3.7232265e-16
-1.2037925e-10
-2.2046082e-10
-5.301544e-10
-3.1692263e-10
-1.8668892e-10
8.7474577e-11
-2.5952609e-11
3.1928865e-11
-1.4012273e-10
8.4808752e-11
6.1033454e-11
6.2046024e-11
-8.0992501e-11
7.6323248e-11
1.1282606e-10
9.5711176e-11
-9.1376937e-12
6.5988541e-11
1.3852e-10
1.0887417e-10
4.5028784e-11
5.5238283e-11
1.4256311e-10
1.0148201e-10
7.4268919e-11
4.2067432e-11
1.323156e-10
8.3763364e-11
8.3656966e-11
2.9342609e-11
1.1452773e-10
6.305287e-11
8.06827e-11
1.9051055e-11
9.4161102e-11
4.3714195e-11
7.1221471e-11
1.1272524e-11
7.4376677e-11
2.7722176e-11
5.9126476e-11
5.6658635e-12
5.6893519e-11
1.5793863e-11
4.6844367e-11
1.8477087e-12
4.2347596e-11
7.4627078e-12
3.5872146e-11
-5.8083938e-13
3.0761141e-11
1.8516432e-12
2.6719889e-11
-1.9911417e-12
2.1869825e-11
-1.5871576e-12
1.9458666e-11
-2.6868544e-12
1.5256495e-11
-3.4372629e-12
1.3917266e-11
-2.8369236e-12
1.0465328e-11
-4.2203555e-12
9.8080491e-12
-2.7171353e-12
7.0707128e-12
-4.3357971e-12
6.8303986e-12
-2.5004713e-12
4.7109262e-12
-4.069951e-12
4.7149077e-12
-2.1921511e-12
3.0615657e-12
-3.6151467e-12
3.2357161e-12
-1.8728169e-12
1.9381169e-12
-3.0919079e-12
2.21507e-12
-1.5645602e-12
1.2257768e-12
-2.5708099e-12
1.517749e-12
-1.2816772e-12
7.7218391e-13
-2.0918035e-12
1.0449046e-12
-1.0323916e-12
4.8351048e-13
-1.6731845e-12
7.2508302e-13
-8.1916518e-13
3.016881e-13
-1.3193391e-12
5.0876114e-13
-6.4139459e-13
1.8836139e-13
-1.0241168e-12
3.618019e-13
-4.9583811e-13
1.1812873e-13
-7.8401339e-13
2.6081301e-13
-3.7906668e-13
7.4756941e-14
-5.9710703e-13
1.9033117e-13
-2.8680886e-13
4.7786592e-14
-4.5253695e-13
1.4066633e-13
-2.1483916e-13
3.1039093e-14
-3.4123348e-13
1.0486453e-13
-1.5927441e-13
2.0463497e-14
-2.5563624e-13
7.8765897e-14
-1.1680036e-13
1.3661987e-14
-1.9033127e-13
5.9394875e-14
-8.4852169e-14
9.2029303e-15
-1.407812e-13
4.4827154e-14
-6.1109511e-14
6.1704737e-15
-1.0350925e-13
3.3797939e-14
-4.3305645e-14
4.0786498e-15
-7.5326897e-14
2.5398556e-14
-3.0364102e-14
2.6154157e-15
-5.4566001e-14
1.8983013e-14
-2.1035763e-14
1.555789e-15
-3.9293478e-14
1.409996e-14
-1.4361914e-14
8.1726391e-16
-2.8226888e-14
1.0426868e-14
-9.6663216e-15
3.1307941e-16
-2.0003273e-14
7.6434624e-15
-6.3580614e-15
-2.1993982e-18
-1.4153523e-14
5.6106481e-15
-4.1490199e-15
-2.7109769e-16
-9.9293056e-15
4.0158139e-15
-2.6207197e-15
-3.2786768e-16
-6.9294683e-15
2.9564556e-15
-1.5999619e-15
-5.1395898e-16
-4.822717e-15
2.0474125e-15
-9.4264033e-16
-3.3951476e-16
-3.3485839e-15
1.4184626e-15
-6.0553349e-16
-3.1773011e-16
-2.3163208e-15
1.2088981e-15
-3.139325e-16
-1.2572962e-16
-1.629184e-15
7.3347457e-16
-7.7400471e-17
-1.0118047e-16
-1.2202456e-15
6.3711262e-16
-4.3829689e-17
-2.4464241e-16
-7.2123094e-16
4.0390493e-16
-2.8032131e-17
-5.8526265e-17
-4.4342704e-16
3.5471357e-16
-2.1539569e-17
-2.0705317e-16
-3.685986e-16
3.1388964e-16
-1.8070853e-17
-1.8857748e-16
-3.1628987e-16
1.1684287e-16
-1.4983652e-17
-3.894331e-18
-2.8629596e-16
2.6671479e-16
-1.2288204e-17
7.5861745e-18
-1.0442601e-16
2.495714e-16
-7.9086804e-18
1.2126343e-17
-9.0250609e-17
6.7013459e-17
-1.0390935e-17
1.4925773e-17
-7.2592584e-17
1.0565821e-16
-1.8039374e-17
3.44199e-17
-5.3637671e-17
7.9825541e-17
-2.4780863e-17
3.8514624e-17
-2.1129883e-16
6.2873583e-17
-3.5665736e-17
3.0548916e-17
-4.8482968e-17
6.1359309e-17
-4.7903945e-17
5.9951876e-17
-5.2346387e-17
2.564747e-17
-6.006333e-17
7.2624814e-17
-5.2272531e-17
2.4712126e-16
-1.3811783e-16
1.457282e-16
-2.142541e-16
-3.7355641e-09
-4.6454534e-10
-9.5224049e-10
-2.6187893e-10
2.2873335e-09
-8.3950561e-10
-3.3541019e-10
-8.4718102e-10
4.1605666e-09
-1.7304107e-10
1.0354134e-10
-2.650199e-10
2.7525091e-09
1.0025987e-10
2.3621141e-10
8.4244517e-14
2.1930654e-09
2.7350614e-10
2.9583322e-10
1.9688141e-10
1.7358006e-09
3.5855457e-10
3.053515e-10
2.9486004e-10
1.3234989e-09
3.8271363e-10
2.9018579e-10
3.4194396e-10
9.9855552e-10
3.6503196e-10
2.6339904e-10
3.4487594e-10
7.5240149e-10
3.2556794e-10
2.3078683e-10
3.1882595e-10
5.6329034e-10
2.7714759e-10
1.9641847e-10
2.7819291e-10
4.1721307e-10
2.2795082e-10
1.6338839e-10
2.3323983e-10
3.0601054e-10
1.8260976e-10
1.3328477e-10
1.896026e-10
2.2304834e-10
1.4338164e-10
1.0683464e-10
1.5012887e-10
1.6195056e-10
1.1085666e-10
8.4388285e-11
1.1658839e-10
1.1727578e-10
8.4688706e-11
6.5832861e-11
8.9259761e-11
8.4764886e-11
6.4190602e-11
5.0834558e-11
6.7595446e-11
6.118711e-11
4.8396361e-11
3.8922679e-11
5.0755387e-11
4.4123451e-11
3.622903e-11
2.9620027e-11
3.7858474e-11
3.1793948e-11
2.7005729e-11
2.2494257e-11
2.8094102e-11
2.289433e-11
2.0064891e-11
1.7025749e-11
2.076238e-11
1.6473781e-11
1.4789143e-11
1.2762977e-11
1.5289952e-11
1.1846694e-11
1.0850069e-11
9.4838387e-12
1.1226891e-11
8.5151731e-12
7.9367406e-12
7.0105643e-12
8.2246945e-12
6.1195048e-12
5.7926752e-12
5.1650921e-12
6.0166179e-12
4.3983838e-12
4.2214702e-12
3.7970374e-12
4.4044184e-12
3.1619994e-12
3.0736685e-12
2.7870976e-12
3.2289533e-12
2.2743039e-12
2.2364338e-12
2.0435898e-12
2.3627016e-12
1.6369418e-12
1.6268614e-12
1.4974115e-12
1.7240048e-12
1.1792013e-12
1.1831303e-12
1.0969642e-12
1.2572783e-12
8.5033682e-13
8.6042062e-13
8.0370258e-13
9.1669237e-13
6.140465e-13
6.2583863e-13
5.8912069e-13
6.6838144e-13
4.4413702e-13
4.5519313e-13
4.3213647e-13
4.8762873e-13
3.2186448e-13
3.3116538e-13
3.1728582e-13
3.5558898e-13
2.3376446e-13
2.4095584e-13
2.3324294e-13
2.5980593e-13
1.701787e-13
1.7547926e-13
1.7171197e-13
1.899585e-13
1.2418441e-13
1.2789929e-13
1.2658173e-13
1.387296e-13
9.0835336e-14
9.3129774e-14
9.3419969e-14
1.0139622e-13
6.6592209e-14
6.8065226e-14
6.9059761e-14
7.3946248e-14
4.8928151e-14
4.9579916e-14
5.0999433e-14
5.4073577e-14
3.5984097e-14
3.6248725e-14
3.7887201e-14
3.9554796e-14
2.6591708e-14
2.6513662e-14
2.8167048e-14
2.8964827e-14
1.9617103e-14
1.9430893e-14
2.0883034e-14
2.1220034e-14
1.4391225e-14
1.4271798e-14
1.5367428e-14
1.5584465e-14
1.0668974e-14
1.0406561e-14
1.1375021e-14
1.1395071e-14
7.9364044e-15
7.7000286e-15
8.5613675e-15
8.3924796e-15
5.733944e-15
5.6984983e-15
6.1278791e-15
6.2903415e-15
4.3018899e-15
4.2956083e-15
4.6436759e-15
4.6483722e-15
3.0702073e-15
3.2511217e-15
3.3719131e-15
3.3872985e-15
2.1512992e-15
2.348714e-15
2.587325e-15
2.618683e-15
1.6716753e-15
1.7196979e-15
1.9178371e-15
1.9655994e-15
1.2733636e-15
1.3342549e-15
1.3353983e-15
1.5582277e-15
9.4192018e-16
9.9980921e-16
9.8638551e-16
1.0441904e-15
4.8979628e-16
7.0690592e-16
6.873988e-16
9.0466679e-16
3.9926748e-16
6.1835892e-16
4.2091504e-16
6.3635446e-16
3.1697064e-16
3.8641415e-16
3.4816528e-16
3.9822445e-16
2.2011764e-16
1.7072938e-16
2.410582e-16
3.48284e-16
1.5147345e-16
1.3716496e-16
1.4458377e-16
1.5149367e-16
1.1138083e-16
1.1619055e-16
8.0421234e-17
1.399012e-16
9.1910131e-17
1.2357777e-16
4.3916863e-17
1.5722523e-16
-3.4939254e-17
2.4229334e-16
6.4921852e-17
3.7232266e-16
)
;

boundaryField
{
    movingWall
    {
        type            calculated;
        value           nonuniform List<scalar> 
16
(
-4.5790126e-16
1.4499505e-16
4.5790126e-16
-1.4499505e-16
1.9284229e-16
-3.3007316e-16
-1.928423e-16
3.3007316e-16
-2.2203665e-16
-8.051774e-17
2.2203664e-16
8.051774e-17
3.7613472e-16
-5.53568e-16
-3.7613472e-16
5.53568e-16
)
;
    }
    CPLReceiveMD
    {
        type            calculated;
        value           nonuniform List<scalar> 
16
(
8.8561554e-11
6.185311e-09
-8.8561554e-11
-6.185311e-09
5.0844322e-10
-2.5691841e-10
-5.0844322e-10
2.5691841e-10
9.9373895e-10
1.3061657e-09
-9.9373895e-10
-1.3061657e-09
6.5913089e-10
-6.2771622e-10
-6.5913089e-10
6.2771622e-10
)
;
    }
    streamwiseIn
    {
        type            cyclic;
    }
    streamwiseOut
    {
        type            cyclic;
    }
    front
    {
        type            cyclic;
    }
    back
    {
        type            cyclic;
    }
}


// ************************************************************************* //
