/*--------------------------------*- C++ -*----------------------------------*\
| =========                 |                                                 |
| \\      /  F ield         | OpenFOAM: The Open Source CFD Toolbox           |
|  \\    /   O peration     | Version:  3.0.x                                 |
|   \\  /    A nd           | Web:      www.OpenFOAM.org                      |
|    \\/     M anipulation  |                                                 |
\*---------------------------------------------------------------------------*/
FoamFile
{
    version     2.0;
    format      ascii;
    class       volVectorField;
    location    "325";
    object      U;
}
// * * * * * * * * * * * * * * * * * * * * * * * * * * * * * * * * * * * * * //

dimensions      [0 1 -1 0 0 0 0];

internalField   nonuniform List<vector> 
960
(
(0.0067286004 1.6021368e-08 1.9541867e-11)
(0.0067285935 4.516546e-09 1.9721821e-10)
(0.0067285901 -1.2403699e-09 3.7096147e-10)
(0.0067285871 -2.5476843e-09 2.4777007e-10)
(0.0021405753 1.9418998e-08 1.0679819e-10)
(0.0021406355 5.5020759e-09 1.5564389e-10)
(0.0021406299 1.4148393e-09 4.1100873e-10)
(0.0021405451 -2.9711234e-09 2.2520051e-10)
(-0.00034806265 1.1097291e-08 1.6647459e-10)
(-0.00034799618 8.9144993e-10 1.2155619e-10)
(-0.00034800027 7.3151498e-09 3.9809128e-10)
(-0.00034807752 2.3106611e-09 2.0861513e-10)
(-0.0013361472 -1.75685e-09 2.1094586e-10)
(-0.0013360411 -6.0688305e-09 9.0887597e-11)
(-0.0013360432 1.4477977e-08 3.6245744e-10)
(-0.0013361538 1.0998939e-08 1.7822623e-10)
(-0.0013996871 -1.1773848e-08 2.2708594e-10)
(-0.0013996073 -1.4792327e-08 6.424046e-11)
(-0.0013996083 2.3104814e-08 3.1262992e-10)
(-0.0013996811 2.1044447e-08 1.3708485e-10)
(-0.00096935863 -1.5274229e-08 2.1796735e-10)
(-0.00096932652 -1.8178359e-08 4.1006137e-11)
(-0.00096932727 2.5564839e-08 2.5795233e-10)
(-0.00096935008 2.504737e-08 9.5911768e-11)
(-0.00025887697 -1.3960763e-08 1.9323202e-10)
(-0.00025888061 -1.6426164e-08 2.2546147e-11)
(-0.00025888139 2.3174718e-08 2.0514672e-10)
(-0.0002588711 2.3500855e-08 6.0366445e-11)
(0.00064006863 -1.0342465e-08 1.6192646e-10)
(0.00064004651 -1.2015322e-08 9.3142288e-12)
(0.00064004569 1.8551579e-08 1.5815465e-10)
(0.0006400714 1.8927161e-08 3.2659014e-11)
(0.0016821414 -5.9390244e-09 1.3001285e-10)
(0.0016821119 -6.7208813e-09 4.6206028e-13)
(0.001682111 1.3210317e-08 1.1870204e-10)
(0.0016821421 1.3213312e-08 1.2779717e-11)
(0.002843244 -1.3982886e-09 1.0090808e-10)
(0.0028432134 -1.3371272e-09 -5.0210059e-12)
(0.0028432124 7.7833721e-09 8.7031512e-11)
(0.0028432433 7.2618168e-09 -3.2869426e-13)
(0.0041154403 2.8957378e-09 7.6127999e-11)
(0.0041154126 3.7329759e-09 -8.019196e-12)
(0.0041154114 2.6658846e-09 6.2490719e-11)
(0.0041154386 1.5646639e-09 -8.1397021e-12)
(0.0055034027 6.6771678e-09 5.6164866e-11)
(0.0055033801 8.2424219e-09 -9.2800938e-12)
(0.0055033785 -1.8582083e-09 4.4015844e-11)
(0.0055034003 -3.5672794e-09 -1.2244587e-11)
(0.0070195835 9.826787e-09 4.0675535e-11)
(0.0070195668 1.2088864e-08 -9.4006614e-12)
(0.007019565 -5.6553228e-09 3.0464017e-11)
(0.0070195808 -7.991902e-09 -1.3764982e-11)
(0.0086799755 1.2354731e-08 2.9014943e-11)
(0.0086799646 1.5299171e-08 -8.8303252e-12)
(0.0086799624 -8.7292992e-09 2.0747384e-11)
(0.0086799726 -1.1712253e-08 -1.3631833e-11)
(0.010501586 1.4340213e-08 2.0451928e-11)
(0.010501581 1.7973758e-08 -7.8873575e-12)
(0.010501578 -1.1161782e-08 1.3918815e-11)
(0.010501583 -1.4818557e-08 -1.2554889e-11)
(0.012501463 1.5876035e-08 1.4286667e-11)
(0.012501462 2.0229162e-08 -6.7931182e-12)
(0.012501459 -1.3053958e-08 9.2040046e-12)
(0.01250146 -1.7427176e-08 -1.1024702e-11)
(0.014696603 1.7038167e-08 9.9176462e-12)
(0.014696606 2.2162446e-08 -5.7380997e-12)
(0.014696602 -1.4493635e-08 5.9995199e-12)
(0.014696601 -1.964175e-08 -9.3573278e-12)
(0.017104174 1.7878389e-08 6.862316e-12)
(0.01710418 2.384043e-08 -4.7355157e-12)
(0.017104176 -1.5545951e-08 3.8527218e-12)
(0.017104171 -2.153957e-08 -7.7410585e-12)
(0.019741719 1.8429231e-08 4.747011e-12)
(0.019741729 2.5304828e-08 -3.8452448e-12)
(0.019741724 -1.625662e-08 2.4336741e-12)
(0.019741717 -2.317337e-08 -6.2758529e-12)
(0.022627249 1.8711798e-08 3.292962e-12)
(0.022627262 2.6580425e-08 -3.076378e-12)
(0.022627256 -1.6658868e-08 1.5349529e-12)
(0.022627247 -2.4578489e-08 -5.0042074e-12)
(0.02577922 1.8741772e-08 2.2973629e-12)
(0.025779237 2.7681779e-08 -2.4279321e-12)
(0.02577923 -1.6779338e-08 9.661289e-13)
(0.025779219 -2.5779423e-08 -3.9353278e-12)
(0.029216453 1.8532524e-08 1.6160075e-12)
(0.029216473 2.8617772e-08 -1.8924344e-12)
(0.029216466 -1.6640396e-08 6.0665779e-13)
(0.029216453 -2.6793676e-08 -3.0582792e-12)
(0.032958027 1.8096048e-08 1.1482586e-12)
(0.032958051 2.9393309e-08 -1.4580921e-12)
(0.032958042 -1.6260729e-08 3.8112742e-13)
(0.032958029 -2.7633179e-08 -2.3520189e-12)
(0.037023181 1.7442848e-08 8.2498079e-13)
(0.037023209 3.0009318e-08 -1.1112812e-12)
(0.037023199 -1.5655905e-08 2.4024297e-13)
(0.037023184 -2.8304318e-08 -1.7917712e-12)
(0.041431223 1.6581694e-08 5.9929096e-13)
(0.041431255 3.0462213e-08 -8.3824583e-13)
(0.041431243 -1.4838417e-08 1.524117e-13)
(0.041431227 -2.8807566e-08 -1.3533803e-12)
(0.046201448 1.5519742e-08 4.3973879e-13)
(0.046201484 3.0743508e-08 -6.2602336e-13)
(0.046201471 -1.3818074e-08 9.7431384e-14)
(0.046201454 -2.9137427e-08 -1.0165947e-12)
(0.051353056 1.4263174e-08 3.2542296e-13)
(0.051353096 3.0839931e-08 -4.6299413e-13)
(0.051353082 -1.260287e-08 6.2765002e-14)
(0.051353064 -2.9282562e-08 -7.5979218e-13)
(0.056905059 1.2818217e-08 2.4241864e-13)
(0.056905103 3.0734067e-08 -3.3911934e-13)
(0.056905087 -1.1200219e-08 4.069244e-14)
(0.056905069 -2.9226654e-08 -5.6462317e-13)
(0.062876168 1.119237e-08 1.8139298e-13)
(0.062876217 3.0405389e-08 -2.4597054e-13)
(0.062876199 -9.6183632e-09 2.6448951e-14)
(0.062876181 -2.894986e-08 -4.1708932e-13)
(0.069284667 9.3956474e-09 1.3603651e-13)
(0.069284721 2.9831542e-08 -1.7663063e-13)
(0.069284701 -7.8677406e-09 1.7108006e-14)
(0.069284683 -2.8430114e-08 -3.0627311e-13)
(0.07614826 7.4416764e-09 1.0205155e-13)
(0.076148319 2.8989699e-08 -1.2552654e-13)
(0.076148298 -5.9621762e-09 1.0888268e-14)
(0.07614828 -2.7644582e-08 -2.2357515e-13)
(0.0834839 5.3485319e-09 7.645333e-14)
(0.083483965 2.7857904e-08 -8.823916e-14)
(0.083483942 -3.9197893e-09 6.7044581e-15)
(0.083483925 -2.6571107e-08 -1.6224298e-13)
(0.091307605 3.1392628e-09 5.7130978e-14)
(0.091307675 2.6416324e-08 -6.1314743e-14)
(0.09130765 -1.7635667e-09 3.8844252e-15)
(0.091307634 -2.5189531e-08 -1.170191e-13)
(0.099634255 8.4208292e-10 4.2551653e-14)
(0.099634332 2.4648388e-08 -4.2083312e-14)
(0.099634304 4.7842794e-10 1.9987549e-15)
(0.099634289 -2.348288e-08 -8.3895135e-14)
(0.10847739 -1.509771e-09 3.1574462e-14)
(0.10847747 2.2541816e-08 -2.8507134e-14)
(0.10847744 2.7731455e-09 7.683616e-16)
(0.10847743 -2.1438424e-08 -5.9921201e-14)
(0.117849 -3.8784681e-09 2.3349358e-14)
(0.11784909 2.0089555e-08 -1.9042057e-14)
(0.11784906 5.0829793e-09 4.443563e-18)
(0.11784905 -1.9048648e-08 -4.26066e-14)
(0.12775931 -6.2223032e-09 1.7222124e-14)
(0.12775941 1.7290641e-08 -1.2533601e-14)
(0.12775937 7.3665071e-09 -4.2800473e-16)
(0.12775937 -1.6312116e-08 -3.0164278e-14)
(0.1382166 -8.4966767e-09 1.2685886e-14)
(0.1382167 1.415102e-08 -8.1331712e-15)
(0.13821667 9.5794526e-09 -6.2814716e-16)
(0.13821666 -1.3234263e-08 -2.1289222e-14)
(0.14922698 -1.0655276e-08 9.3479553e-15)
(0.14922708 1.0684312e-08 -5.2061514e-15)
(0.14922704 1.1675887e-08 -6.7522701e-16)
(0.14922704 -9.8281723e-09 -1.4998001e-14)
(0.16079422 -1.2651455e-08 6.9091779e-15)
(0.16079433 6.9125901e-09 -3.2946474e-15)
(0.16079429 1.360963e-08 -6.2481723e-16)
(0.16079429 -6.1153304e-09 -1.0569852e-14)
(0.17291962 -1.4439783e-08 5.1370608e-15)
(0.17291973 2.8671401e-09 -2.0742604e-15)
(0.17291969 1.533581e-08 -5.1676424e-16)
(0.17291969 -2.1263674e-09 -7.4739762e-15)
(0.1856018 -1.5977706e-08 3.8529711e-15)
(0.18560191 -1.410822e-09 -1.3175041e-15)
(0.18560187 1.6812548e-08 -3.8040364e-16)
(0.18560188 2.0982756e-09 -5.319779e-15)
(0.19883663 -1.7227314e-08 2.9287897e-15)
(0.19883674 -5.8693057e-09 -8.6141238e-16)
(0.1988367 1.8002728e-08 -2.4258916e-16)
(0.19883672 6.507457e-09 -3.8260636e-15)
(0.2126171 -1.8157127e-08 2.2650555e-15)
(0.21261722 -1.0444747e-08 -5.9588481e-16)
(0.21261717 1.8875782e-08 -1.1835616e-16)
(0.21261719 1.1038533e-08 -2.7950009e-15)
(0.22693326 -1.8743872e-08 1.7891476e-15)
(0.22693338 -1.506124e-08 -4.4859179e-16)
(0.22693333 1.9409422e-08 -1.3524029e-17)
(0.22693335 1.5616605e-08 -2.083e-15)
(0.24177214 -1.8974135e-08 1.442698e-15)
(0.24177226 -1.9629621e-08 -3.7256934e-16)
(0.24177221 1.959123e-08 7.2000841e-17)
(0.24177224 2.0153481e-08 -1.5883069e-15)
(0.25711777 -1.8845804e-08 1.1826218e-15)
(0.25711789 -2.4046562e-08 -3.3140602e-16)
(0.25711784 1.9419986e-08 1.3966509e-16)
(0.25711788 2.4546651e-08 -1.2434622e-15)
(0.27295115 -1.8369142e-08 9.8206599e-16)
(0.27295127 -2.8193679e-08 -3.0621038e-16)
(0.27295122 1.8906559e-08 1.9040981e-16)
(0.27295126 2.8678203e-08 -1.0003182e-15)
(0.28925032 -1.7567307e-08 8.2308639e-16)
(0.28925043 -3.1936724e-08 -2.8896485e-16)
(0.28925038 1.807419e-08 2.2827495e-16)
(0.28925043 3.2413741e-08 -8.2408958e-16)
(0.30599039 -1.647609e-08 6.9700723e-16)
(0.3059905 -3.5125022e-08 -2.7359906e-16)
(0.30599044 1.6957917e-08 2.5190798e-16)
(0.30599049 3.5601485e-08 -6.9423724e-16)
(0.32314366 -1.5142593e-08 5.9983581e-16)
(0.32314376 -3.7591439e-08 -2.6160525e-16)
(0.32314371 1.5602893e-08 2.6180057e-16)
(0.32314376 3.8071862e-08 -5.9720502e-16)
(0.34067977 -1.3622549e-08 5.2010494e-16)
(0.34067986 -3.9153333e-08 -2.5091354e-16)
(0.3406798 1.4061355e-08 2.5780406e-16)
(0.34067986 3.9638105e-08 -5.1276401e-16)
(0.35856578 -1.1976041e-08 4.4800884e-16)
(0.35856586 -3.9615389e-08 -2.4300068e-16)
(0.35856581 1.2388087e-08 2.5031496e-16)
(0.35856587 4.009894e-08 -4.3910208e-16)
(0.37676647 -1.0261527e-08 3.9423338e-16)
(0.37676653 -3.8776329e-08 -2.3893965e-16)
(0.37676648 1.0634519e-08 2.3944455e-16)
(0.37676654 3.92456e-08 -3.761229e-16)
(0.39524441 -8.5283565e-09 3.4654921e-16)
(0.39524447 -3.6442078e-08 -2.272686e-16)
(0.39524441 8.8420588e-09 2.2771706e-16)
(0.39524447 3.6876303e-08 -3.2919555e-16)
(0.41396033 -6.8080854e-09 3.0986014e-16)
(0.41396037 -3.2442763e-08 -2.1162769e-16)
(0.41396031 7.0362809e-09 2.125306e-16)
(0.41396038 3.2816282e-08 -2.9491447e-16)
(0.43287327 -5.1048928e-09 2.7608869e-16)
(0.43287329 -2.6639799e-08 -1.8974992e-16)
(0.43287323 5.2216212e-09 1.9460363e-16)
(0.4328733 2.6930064e-08 -2.6126938e-16)
(0.4519409 -3.4096959e-09 2.3986679e-16)
(0.4519409 -1.9026965e-08 -1.5762911e-16)
(0.45194085 3.4021065e-09 1.6627897e-16)
(0.45194091 1.9225913e-08 -2.2151035e-16)
(0.47111981 -1.7431745e-09 2.0838797e-16)
(0.4711198 -1.017661e-08 -1.1722244e-16)
(0.47111976 1.5565339e-09 1.2903378e-16)
(0.47111981 1.0325622e-08 -1.8201597e-16)
(0.4903658 -5.7934763e-10 1.7583761e-16)
(0.49036579 -3.2661599e-09 -6.6692102e-17)
(0.49036577 4.9673243e-10 8.1522066e-17)
(0.49036579 3.323759e-09 -1.4236875e-16)
(0.0067285902 3.3573921e-09 3.246818e-09)
(0.0067285826 5.032316e-09 -9.4537205e-11)
(0.0067285817 -2.4617785e-09 4.7911555e-10)
(0.0067285799 -3.7599561e-09 -2.2873016e-10)
(0.0021405508 2.8601177e-09 6.0314915e-09)
(0.0021406071 7.4984234e-09 8.08698e-10)
(0.0021406063 -1.2982033e-09 9.014972e-10)
(0.0021405275 -4.9451515e-09 6.606732e-10)
(-0.00034807208 -3.1043162e-09 4.6330737e-09)
(-0.0003480089 2.3683322e-09 1.0299906e-09)
(-0.00034800958 5.1665638e-09 9.3646033e-10)
(-0.00034808214 4.8551603e-10 9.0643265e-10)
(-0.0013361507 -1.0477917e-08 3.6236383e-09)
(-0.0013360474 -5.879964e-09 1.066884e-09)
(-0.0013360471 1.2906993e-08 8.8160843e-10)
(-0.0013361532 9.3131787e-09 9.8933128e-10)
(-0.0013996791 -1.8772236e-08 2.7926638e-09)
(-0.0013996012 -1.5893372e-08 1.0097225e-09)
(-0.0013996006 2.1964026e-08 7.8737573e-10)
(-0.00139967 1.9619929e-08 9.6222821e-10)
(-0.00096934859 -2.0803196e-08 2.1123028e-09)
(-0.00096931754 -2.002904e-08 9.0473272e-10)
(-0.00096931736 2.4679033e-08 6.816427e-10)
(-0.0009693379 2.3935906e-08 8.8549167e-10)
(-0.00025886999 -1.8086071e-08 1.5873192e-09)
(-0.00025887411 -1.8497299e-08 7.7665381e-10)
(-0.00025887431 2.2443896e-08 5.7698176e-10)
(-0.00025886271 2.2459232e-08 7.7748642e-10)
(0.00064007216 -1.3282887e-08 1.1879678e-09)
(0.00064004999 -1.3958363e-08 6.4531304e-10)
(0.00064004956 1.7913343e-08 4.7877359e-10)
(0.00064007591 1.7867835e-08 6.5687126e-10)
(0.0016821426 -7.9565127e-09 8.8277181e-10)
(0.0016821134 -8.3682883e-09 5.2226684e-10)
(0.0016821128 1.2643311e-08 3.9020819e-10)
(0.001682144 1.2132458e-08 5.3820595e-10)
(0.0028432437 -2.735985e-09 6.5034771e-10)
(0.0028432136 -2.6415194e-09 4.1384661e-10)
(0.0028432127 7.2880988e-09 3.1310692e-10)
(0.0028432436 6.1884662e-09 4.30335e-10)
(0.004115439 2.0357916e-09 4.755736e-10)
(0.0041154118 2.7520808e-09 3.2243605e-10)
(0.0041154107 2.2463035e-09 2.4787384e-10)
(0.0041154378 5.3151086e-10 3.3742346e-10)
(0.0055034006 6.1406913e-09 3.4602816e-10)
(0.0055033786 7.5359531e-09 2.4791421e-10)
(0.0055033771 -2.2014857e-09 1.9389472e-10)
(0.0055033988 -4.5323676e-09 2.6026406e-10)
(0.007019581 9.4998929e-09 2.5095742e-10)
(0.0070195649 1.1599954e-08 1.8866639e-10)
(0.0070195631 -5.926116e-09 1.5015588e-10)
(0.0070195788 -8.8658996e-09 1.9825199e-10)
(0.0086799727 1.2156498e-08 1.8161457e-10)
(0.0086799624 1.4974027e-08 1.4243579e-10)
(0.0086799602 -8.9356202e-09 1.1529868e-10)
(0.0086799705 -1.2482479e-08 1.4959283e-10)
(0.010501583 1.4216238e-08 1.3124056e-10)
(0.010501578 1.7766819e-08 1.0687188e-10)
(0.010501576 -1.1313395e-08 8.7909887e-11)
(0.010501581 -1.5483084e-08 1.1205218e-10)
(0.01250146 1.5791612e-08 9.4745708e-11)
(0.012501459 2.0104187e-08 7.9805987e-11)
(0.012501456 -1.3160532e-08 6.6632889e-11)
(0.012501458 -1.7991823e-08 8.3451208e-11)
(0.0146966 1.6972418e-08 6.8350781e-11)
(0.014696603 2.2092951e-08 5.9307091e-11)
(0.014696599 -1.4564027e-08 5.0256464e-11)
(0.014696598 -2.0117088e-08 6.1869874e-11)
(0.017104171 1.7819653e-08 4.9281747e-11)
(0.017104177 2.3808945e-08 4.3877304e-11)
(0.017104173 -1.5587908e-08 3.7747303e-11)
(0.017104169 -2.1938357e-08 4.5705985e-11)
(0.019741716 1.8371551e-08 3.5517798e-11)
(0.019741726 2.5299799e-08 3.2363417e-11)
(0.019741721 -1.6276902e-08 2.8232895e-11)
(0.019741714 -2.3508585e-08 3.3668968e-11)
(0.022627245 1.8652433e-08 2.558834e-11)
(0.022627259 2.6593729e-08 2.3757908e-11)
(0.022627253 -1.6663547e-08 2.0989798e-11)
(0.022627245 -2.4862009e-08 2.4744618e-11)
(0.025779217 1.8679606e-08 1.8430749e-11)
(0.025779234 2.7707827e-08 1.7389347e-11)
(0.025779227 -1.6772884e-08 1.5525509e-11)
(0.025779217 -2.6021289e-08 1.8153187e-11)
(0.02921645 1.846716e-08 1.3274916e-11)
(0.02921647 2.8653026e-08 1.2703638e-11)
(0.029216462 -1.6625603e-08 1.1447684e-11)
(0.029216451 -2.7001871e-08 1.3300767e-11)
(0.032958024 1.8027326e-08 9.5630411e-12)
(0.032958048 2.943553e-08 9.2675385e-12)
(0.032958039 -1.6239842e-08 8.4241972e-12)
(0.032958026 -2.7813764e-08 9.7380459e-12)
(0.037023178 1.7370633e-08 6.8920409e-12)
(0.037023206 3.0057085e-08 6.7545401e-12)
(0.037023195 -1.5630834e-08 6.1909948e-12)
(0.037023181 -2.8461726e-08 7.1276203e-12)
(0.041431219 1.6505812e-08 4.9700356e-12)
(0.041431251 3.0514605e-08 4.9201468e-12)
(0.04143124 -1.4810828e-08 4.5461922e-12)
(0.041431224 -2.8944915e-08 5.2166505e-12)
(0.046201444 1.544e-08 3.5869674e-12)
(0.046201481 3.0799899e-08 3.5827575e-12)
(0.046201467 -1.3789475e-08 3.3370038e-12)
(0.046201451 -2.9256625e-08 3.8139143e-12)
(0.051353053 1.4179376e-08 2.5914264e-12)
(0.051353093 3.089985e-08 2.6084964e-12)
(0.051353078 -1.2574665e-08 2.4491893e-12)
(0.051353062 -2.9384807e-08 2.7848009e-12)
(0.056905055 1.273019e-08 1.8745083e-12)
(0.0569051 3.0797089e-08 1.8991603e-12)
(0.056905084 -1.1173749e-08 1.7979652e-12)
(0.056905067 -2.9312837e-08 2.0328833e-12)
(0.062876164 1.1100001e-08 1.3578679e-12)
(0.062876214 3.0471062e-08 1.3828923e-12)
(0.062876196 -9.594911e-09 1.3205449e-12)
(0.062876178 -2.9020461e-08 1.4841873e-12)
(0.069284663 9.2989141e-09 9.8523133e-13)
(0.069284718 2.9899334e-08 1.0072105e-12)
(0.069284698 -7.8485297e-09 9.705786e-13)
(0.069284681 -2.8485329e-08 1.0838566e-12)
(0.076148256 7.340664e-09 7.161516e-13)
(0.076148316 2.9058968e-08 7.3384643e-13)
(0.076148294 -5.9483623e-09 7.1397953e-13)
(0.076148277 -2.7684455e-08 7.9177434e-13)
(0.083483896 5.2434483e-09 5.2157304e-13)
(0.083483962 2.7927883e-08 5.3492134e-13)
(0.083483938 -3.9124481e-09 5.2573446e-13)
(0.083483922 -2.6595615e-08 5.7865485e-13)
(0.091307601 3.0304445e-09 3.8062274e-13)
(0.091307673 2.6486117e-08 3.9014588e-13)
(0.091307647 -1.7636827e-09 3.8752309e-13)
(0.091307632 -2.5198648e-08 4.2315616e-13)
(0.099634252 7.2999661e-10 2.783109e-13)
(0.099634329 2.4716981e-08 2.8475902e-13)
(0.099634301 4.6996997e-10 2.8595232e-13)
(0.099634287 -2.347663e-08 3.096576e-13)
(0.10847739 -1.6245254e-09 2.0387664e-13)
(0.10847747 2.26081e-08 2.0802278e-13)
(0.10847744 2.7555684e-09 2.1119364e-13)
(0.10847743 -2.1416935e-08 2.266048e-13)
(0.117849 -3.9951623e-09 1.4959748e-13)
(0.11784909 2.0152348e-08 1.521278e-13)
(0.11784905 5.0556212e-09 1.5610183e-13)
(0.11784904 -1.9012159e-08 1.6593987e-13)
(0.12775931 -6.3400881e-09 1.0992483e-13)
(0.12775941 1.7348721e-08 1.1139478e-13)
(0.12775937 7.3288258e-09 1.1545173e-13)
(0.12775936 -1.6260985e-08 1.2164301e-13)
(0.1382166 -8.6145854e-09 8.0862773e-14)
(0.1382167 1.4203145e-08 8.168316e-14)
(0.13821666 9.5310285e-09 8.5419417e-14)
(0.13821666 -1.3169008e-08 8.9279279e-14)
(0.14922698 -1.0772231e-08 5.9525021e-14)
(0.14922708 1.0729268e-08 5.9999518e-14)
(0.14922704 1.1616428e-08 6.3205882e-14)
(0.14922704 -9.7494828e-09 6.5627502e-14)
(0.16079422 -1.2766278e-08 4.3826317e-14)
(0.16079433 6.9492267e-09 4.4163888e-14)
(0.16079429 1.3538976e-08 4.6758906e-14)
(0.16079429 -6.0240727e-09 4.8333108e-14)
(0.17291961 -1.4551201e-08 3.225872e-14)
(0.17291973 2.8943973e-09 3.2584549e-14)
(0.17291969 1.5253936e-08 3.4570151e-14)
(0.17291969 -2.0235832e-09 3.5676525e-14)
(0.18560179 -1.6084367e-08 2.372471e-14)
(0.18560191 -1.3938837e-09 2.4104849e-14)
(0.18560187 1.6719579e-08 2.5532126e-14)
(0.18560188 2.2113463e-09 2.6402445e-14)
(0.19883663 -1.7327798e-08 1.7425127e-14)
(0.19883674 -5.8634722e-09 1.7881691e-14)
(0.1988367 1.7898939e-08 1.8827852e-14)
(0.19883672 6.6293908e-09 1.9600391e-14)
(0.2126171 -1.8249978e-08 1.2771448e-14)
(0.21261722 -1.045062e-08 1.3307203e-14)
(0.21261717 1.8761607e-08 1.3856827e-14)
(0.21261719 1.1167743e-08 1.4600135e-14)
(0.22693325 -1.8827631e-08 9.3355956e-15)
(0.22693338 -1.5079219e-08 9.9374735e-15)
(0.22693333 1.9285469e-08 1.017332e-14)
(0.22693336 1.5751335e-08 1.0915504e-14)
(0.24177214 -1.9047401e-08 6.8032044e-15)
(0.24177226 -1.9659884e-08 7.4448524e-15)
(0.24177221 1.9458293e-08 7.446346e-15)
(0.24177224 2.0291836e-08 8.1933692e-15)
(0.25711777 -1.8907325e-08 4.9380288e-15)
(0.25711789 -2.408907e-08 5.5935721e-15)
(0.25711784 1.9279047e-08 5.4313122e-15)
(0.25711788 2.4686645e-08 6.1795093e-15)
(0.27295116 -1.8417937e-08 3.5658574e-15)
(0.27295127 -2.8248201e-08 4.2170159e-15)
(0.27295122 1.8758787e-08 3.9435128e-15)
(0.27295126 2.8817836e-08 4.6834257e-15)
(0.28925032 -1.7602838e-08 2.5575355e-15)
(0.28925044 -3.2002893e-08 3.1911552e-15)
(0.28925039 1.7920925e-08 2.8460149e-15)
(0.28925043 3.2551116e-08 3.5709182e-15)
(0.30599039 -1.6498471e-08 1.8206554e-15)
(0.3059905 -3.5202441e-08 2.4249084e-15)
(0.30599045 1.6800624e-08 2.042128e-15)
(0.3059905 3.5734982e-08 2.7345643e-15)
(0.32314367 -1.5152826e-08 1.2865089e-15)
(0.32314377 -3.7679853e-08 1.8474215e-15)
(0.32314371 1.5443084e-08 1.4542789e-15)
(0.32314377 3.820037e-08 2.1068692e-15)
(0.34067977 -1.3622743e-08 9.0069595e-16)
(0.34067986 -3.9252869e-08 1.4127584e-15)
(0.34067981 1.3900473e-08 1.0282468e-15)
(0.34067986 3.9761319e-08 1.6352995e-15)
(0.35856579 -1.1969522e-08 6.1637677e-16)
(0.35856587 -3.9726888e-08 1.0896443e-15)
(0.35856582 1.2227384e-08 7.1682544e-16)
(0.35856587 4.0217671e-08 1.281898e-15)
(0.37676647 -1.0252707e-08 4.1111943e-16)
(0.37676654 -3.8901727e-08 8.4645804e-16)
(0.37676648 1.0475078e-08 4.9148059e-16)
(0.37676654 3.9362041e-08 1.0215697e-15)
(0.39524442 -8.5221644e-09 2.6386255e-16)
(0.39524447 -3.658476e-08 6.5740575e-16)
(0.39524442 8.6853367e-09 3.315364e-16)
(0.39524448 3.6994128e-08 8.2241388e-16)
(0.41396033 -6.8088043e-09 1.5800574e-16)
(0.41396037 -3.2607454e-08 5.1340402e-16)
(0.41396032 6.8855612e-09 2.1633606e-16)
(0.41396038 3.2940046e-08 6.7063465e-16)
(0.43287327 -5.1146802e-09 8.1790847e-17)
(0.43287329 -2.6831351e-08 3.9891827e-16)
(0.43287324 5.0858954e-09 1.4295873e-16)
(0.4328733 2.7062436e-08 5.4708961e-16)
(0.4519409 -3.4269511e-09 2.9465787e-17)
(0.45194091 -1.9242342e-08 3.0573369e-16)
(0.45194086 3.2981373e-09 9.8227214e-17)
(0.45194092 1.9357288e-08 4.4127041e-16)
(0.47111981 -1.7658251e-09 -1.1246551e-17)
(0.4711198 -1.0452404e-08 2.2300359e-16)
(0.47111976 1.5955863e-09 7.1596321e-17)
(0.47111981 1.0474274e-08 3.3527656e-16)
(0.4903658 -5.8881821e-10 -5.9291027e-17)
(0.49036579 -3.3799771e-09 1.1863463e-16)
(0.49036577 5.3229862e-10 3.1736262e-17)
(0.4903658 3.3762058e-09 2.0322847e-16)
(0.0067286005 1.645088e-09 -1.9541867e-11)
(0.0067285908 4.4735653e-09 -1.9721821e-10)
(0.0067285899 -9.979057e-10 -3.7096147e-10)
(0.0067285899 -2.6883814e-09 -2.4777007e-10)
(0.0021405754 1.7445348e-10 -1.0679819e-10)
(0.0021406303 6.0834591e-09 -1.5564389e-10)
(0.0021406297 1.6151396e-09 -4.1100873e-10)
(0.0021405502 -2.3858284e-09 -2.2520051e-10)
(-0.00034806254 -4.3454324e-09 -1.6647459e-10)
(-0.00034799988 9.0653583e-10 -1.2155619e-10)
(-0.00034800039 6.771962e-09 -3.9809128e-10)
(-0.00034807382 2.5987228e-09 -2.0861513e-10)
(-0.0013361471 -1.0991319e-08 -2.1094586e-10)
(-0.0013360439 -6.5907966e-09 -9.0887597e-11)
(-0.0013360432 1.365037e-08 -3.6245744e-10)
(-0.0013361511 1.0777008e-08 -1.7822623e-10)
(-0.001399687 -1.8952895e-08 -2.2708594e-10)
(-0.0013996093 -1.579216e-08 -6.424046e-11)
(-0.0013996083 2.2120898e-08 -3.1262992e-10)
(-0.0013996791 2.0273595e-08 -1.3708485e-10)
(-0.00096935861 -2.0920178e-08 -2.1796735e-10)
(-0.00096932795 -1.940776e-08 -4.1006137e-11)
(-0.00096932729 2.4565118e-08 -2.5795233e-10)
(-0.00096934865 2.4008885e-08 -9.5911768e-11)
(-0.00025887697 -1.8244631e-08 -1.9323202e-10)
(-0.00025888162 -1.7696148e-08 -2.2546147e-11)
(-0.00025888139 2.2236256e-08 -2.0514672e-10)
(-0.00025887008 2.2353604e-08 -6.0366445e-11)
(0.00064006862 -1.3546175e-08 -1.6192646e-10)
(0.0006400458 -1.319904e-08 -9.3142288e-12)
(0.00064004571 1.7710187e-08 -1.5815465e-10)
(0.00064007211 1.7804598e-08 -3.2659014e-11)
(0.0016821414 -8.3261971e-09 -1.3001285e-10)
(0.0016821114 -7.7584444e-09 -4.6206028e-13)
(0.0016821111 1.2481109e-08 -1.1870204e-10)
(0.0016821426 1.2196692e-08 -1.2779717e-11)
(0.002843244 -3.1667879e-09 -1.0090808e-10)
(0.0028432131 -2.2093082e-09 5.0210059e-12)
(0.0028432124 7.1680681e-09 -8.7031512e-11)
(0.0028432436 6.3871319e-09 3.2869426e-13)
(0.0041154403 1.5966531e-09 -7.6127999e-11)
(0.0041154124 3.0218623e-09 8.019196e-12)
(0.0041154114 2.1572778e-09 -6.2490719e-11)
(0.0041154389 8.3819564e-10 8.1397021e-12)
(0.0055034027 5.7299279e-09 -5.6164866e-11)
(0.0055033799 7.676097e-09 9.2800938e-12)
(0.0055033786 -2.2712408e-09 -4.4015844e-11)
(0.0055034005 -4.1541829e-09 1.2244587e-11)
(0.0070195835 9.139102e-09 -4.0675535e-11)
(0.0070195667 1.1645963e-08 9.4006614e-12)
(0.007019565 -5.9853181e-09 -3.0464017e-11)
(0.0070195809 -8.4547353e-09 1.3764982e-11)
(0.0086799755 1.1856766e-08 -2.9014943e-11)
(0.0086799645 1.4957703e-08 8.8303252e-12)
(0.0086799624 -8.9893133e-09 -2.0747384e-11)
(0.0086799727 -1.2070677e-08 1.3631833e-11)
(0.010501586 1.3980314e-08 -2.0451928e-11)
(0.010501581 1.7713462e-08 7.8873575e-12)
(0.010501578 -1.1364201e-08 -1.3918815e-11)
(0.010501584 -1.5092381e-08 1.2554889e-11)
(0.012501463 1.5616313e-08 -1.4286667e-11)
(0.012501462 2.0032241e-08 6.7931182e-12)
(0.012501459 -1.3209964e-08 -9.2040046e-12)
(0.01250146 -1.7634167e-08 1.1024702e-11)
(0.014696603 1.6850955e-08 -9.9176462e-12)
(0.014696606 2.2014245e-08 5.7380997e-12)
(0.014696602 -1.4612865e-08 -5.9995199e-12)
(0.014696601 -1.9796916e-08 9.3573278e-12)
(0.017104174 1.7743576e-08 -6.862316e-12)
(0.01710418 2.3729678e-08 4.7355157e-12)
(0.017104176 -1.5636519e-08 -3.8527218e-12)
(0.017104171 -2.1655123e-08 7.7410585e-12)
(0.019741719 1.8332228e-08 -4.747011e-12)
(0.019741729 2.5222411e-08 3.8452448e-12)
(0.019741724 -1.6325272e-08 -2.4336741e-12)
(0.019741717 -2.3258985e-08 6.2758529e-12)
(0.022627249 1.864205e-08 -3.292962e-12)
(0.022627262 2.6519292e-08 3.076378e-12)
(0.022627256 -1.6710736e-08 -1.5349529e-12)
(0.022627247 -2.4641663e-08 5.0042074e-12)
(0.02577922 1.8691657e-08 -2.2973629e-12)
(0.025779237 2.7636789e-08 2.4279321e-12)
(0.02577923 -1.6818155e-08 -9.661289e-13)
(0.025779219 -2.5825876e-08 3.9353278e-12)
(0.029216453 1.8496536e-08 -1.6160075e-12)
(0.029216473 2.8584812e-08 1.8924344e-12)
(0.029216466 -1.6669197e-08 -6.0665779e-13)
(0.029216453 -2.6827736e-08 3.0582792e-12)
(0.032958027 1.8070216e-08 -1.1482586e-12)
(0.032958051 2.9369231e-08 1.4580921e-12)
(0.032958042 -1.628199e-08 -3.8112742e-13)
(0.032958029 -2.7658098e-08 2.3520189e-12)
(0.037023181 1.7424307e-08 -8.2498079e-13)
(0.037023209 2.9991766e-08 1.1112812e-12)
(0.037023199 -1.5671549e-08 -2.4024297e-13)
(0.037023184 -2.8322525e-08 1.7917712e-12)
(0.041431223 1.6568383e-08 -5.9929096e-13)
(0.041431255 3.0449436e-08 8.3824583e-13)
(0.041431243 -1.4849905e-08 -1.524117e-13)
(0.041431227 -2.8820879e-08 1.3533803e-12)
(0.046201448 1.5510183e-08 -4.3973879e-13)
(0.046201484 3.0734214e-08 6.2602336e-13)
(0.046201471 -1.3826498e-08 -9.7431384e-14)
(0.046201454 -2.9147177e-08 1.0165947e-12)
(0.051353056 1.4256305e-08 -3.2542296e-13)
(0.051353096 3.0833175e-08 4.6299413e-13)
(0.051353082 -1.2609041e-08 -6.2765002e-14)
(0.051353064 -2.928969e-08 7.5979218e-13)
(0.056905059 1.2813277e-08 -2.4241864e-13)
(0.056905103 3.0729156e-08 3.3911934e-13)
(0.056905087 -1.1204737e-08 -4.069244e-14)
(0.056905069 -2.9231851e-08 5.6462317e-13)
(0.062876168 1.1188814e-08 -1.8139298e-13)
(0.062876217 3.040182e-08 2.4597054e-13)
(0.062876199 -9.6216707e-09 -2.6448951e-14)
(0.062876181 -2.8953648e-08 4.1708932e-13)
(0.069284667 9.3930849e-09 -1.3603651e-13)
(0.069284721 2.9828948e-08 1.7663063e-13)
(0.069284701 -7.8701624e-09 -1.7108006e-14)
(0.069284683 -2.8432874e-08 3.0627311e-13)
(0.07614826 7.439827e-09 -1.0205155e-13)
(0.076148319 2.8987813e-08 1.2552654e-13)
(0.076148298 -5.9639505e-09 -1.0888268e-14)
(0.07614828 -2.7646593e-08 2.2357515e-13)
(0.0834839 5.3471949e-09 -7.645333e-14)
(0.083483965 2.7856533e-08 8.823916e-14)
(0.083483942 -3.9210902e-09 -6.7044581e-15)
(0.083483925 -2.6572574e-08 1.6224298e-13)
(0.091307605 3.1382943e-09 -5.7130978e-14)
(0.091307675 2.6415327e-08 6.1314743e-14)
(0.09130765 -1.7645215e-09 -3.8844253e-15)
(0.091307634 -2.51906e-08 1.170191e-13)
(0.099634255 8.4137979e-10 -4.2551653e-14)
(0.099634332 2.4647663e-08 4.2083312e-14)
(0.099634304 4.7772629e-10 -1.998755e-15)
(0.099634289 -2.3483661e-08 8.3895135e-14)
(0.10847739 -1.5102827e-09 -3.1574462e-14)
(0.10847747 2.2541288e-08 2.8507134e-14)
(0.10847744 2.7726291e-09 -7.6836163e-16)
(0.10847743 -2.1438995e-08 5.9921201e-14)
(0.117849 -3.8788414e-09 -2.3349358e-14)
(0.11784909 2.008917e-08 1.9042057e-14)
(0.11784906 5.0825987e-09 -4.4435956e-18)
(0.11784905 -1.9049065e-08 4.26066e-14)
(0.12775931 -6.2225762e-09 -1.7222124e-14)
(0.12775941 1.7290361e-08 1.2533601e-14)
(0.12775937 7.3662263e-09 4.280047e-16)
(0.12775937 -1.6312421e-08 3.0164278e-14)
(0.1382166 -8.4968768e-09 -1.2685886e-14)
(0.1382167 1.4150815e-08 8.1331712e-15)
(0.13821667 9.579245e-09 6.2814714e-16)
(0.13821666 -1.3234485e-08 2.1289222e-14)
(0.14922698 -1.0655423e-08 -9.3479553e-15)
(0.14922708 1.0684163e-08 5.2061514e-15)
(0.14922704 1.1675734e-08 6.7522699e-16)
(0.14922704 -9.8283347e-09 1.4998001e-14)
(0.16079422 -1.2651563e-08 -6.9091779e-15)
(0.16079433 6.9124811e-09 3.2946474e-15)
(0.16079429 1.3609516e-08 6.2481721e-16)
(0.16079429 -6.1154492e-09 1.0569852e-14)
(0.17291962 -1.4439863e-08 -5.1370608e-15)
(0.17291973 2.8670604e-09 2.0742604e-15)
(0.17291969 1.5335725e-08 5.1676423e-16)
(0.17291969 -2.1264544e-09 7.4739762e-15)
(0.1856018 -1.5977765e-08 -3.8529711e-15)
(0.18560191 -1.4108804e-09 1.3175041e-15)
(0.18560187 1.6812485e-08 3.8040363e-16)
(0.18560188 2.0982119e-09 5.319779e-15)
(0.19883663 -1.7227357e-08 -2.9287897e-15)
(0.19883674 -5.8693486e-09 8.6141239e-16)
(0.1988367 1.8002682e-08 2.4258915e-16)
(0.19883672 6.5074102e-09 3.8260636e-15)
(0.2126171 -1.8157159e-08 -2.2650555e-15)
(0.21261722 -1.0444778e-08 5.9588481e-16)
(0.21261717 1.8875748e-08 1.1835615e-16)
(0.21261719 1.1038499e-08 2.7950009e-15)
(0.22693326 -1.8743896e-08 -1.7891476e-15)
(0.22693338 -1.5061263e-08 4.4859179e-16)
(0.22693333 1.9409396e-08 1.3524027e-17)
(0.22693335 1.561658e-08 2.083e-15)
(0.24177214 -1.8974152e-08 -1.442698e-15)
(0.24177226 -1.9629638e-08 3.7256935e-16)
(0.24177221 1.9591212e-08 -7.2000844e-17)
(0.24177224 2.0153462e-08 1.5883069e-15)
(0.25711777 -1.8845817e-08 -1.1826218e-15)
(0.25711789 -2.4046575e-08 3.3140603e-16)
(0.25711784 1.9419972e-08 -1.3966509e-16)
(0.25711788 2.4546637e-08 1.2434622e-15)
(0.27295115 -1.8369151e-08 -9.82066e-16)
(0.27295127 -2.8193689e-08 3.0621038e-16)
(0.27295122 1.8906549e-08 -1.9040981e-16)
(0.27295126 2.8678193e-08 1.0003182e-15)
(0.28925032 -1.7567313e-08 -8.2308639e-16)
(0.28925043 -3.1936731e-08 2.8896486e-16)
(0.28925038 1.8074182e-08 -2.2827495e-16)
(0.28925043 3.2413733e-08 8.2408958e-16)
(0.30599039 -1.6476095e-08 -6.9700723e-16)
(0.3059905 -3.5125027e-08 2.7359907e-16)
(0.30599044 1.6957911e-08 -2.5190797e-16)
(0.30599049 3.5601479e-08 6.9423724e-16)
(0.32314366 -1.5142597e-08 -5.9983581e-16)
(0.32314376 -3.7591443e-08 2.6160525e-16)
(0.32314371 1.5602889e-08 -2.6180057e-16)
(0.32314376 3.8071857e-08 5.9720501e-16)
(0.34067977 -1.3622552e-08 -5.2010494e-16)
(0.34067986 -3.9153336e-08 2.5091354e-16)