/*--------------------------------*- C++ -*----------------------------------*\
| =========                 |                                                 |
| \\      /  F ield         | OpenFOAM: The Open Source CFD Toolbox           |
|  \\    /   O peration     | Version:  3.0.1                                 |
|   \\  /    A nd           | Web:      www.OpenFOAM.org                      |
|    \\/     M anipulation  |                                                 |
\*---------------------------------------------------------------------------*/
FoamFile
{
    version     2.0;
    format      ascii;
    class       volScalarField;
    location    "75";
    object      p;
}
// * * * * * * * * * * * * * * * * * * * * * * * * * * * * * * * * * * * * * //

dimensions      [0 2 -2 0 0 0 0];

internalField   nonuniform List<scalar> 
480
(
-5.7007266e-08
-4.4932524e-08
-3.7977184e-08
-3.3521463e-08
-4.8977031e-08
-4.0758856e-08
-4.9044406e-08
-4.0256935e-08
-4.6461937e-08
-4.1781557e-08
-5.379571e-08
-4.3759046e-08
-4.3665886e-08
-4.0075041e-08
-5.8907487e-08
-4.9650051e-08
-4.5686176e-08
-4.2042792e-08
-5.9704201e-08
-5.2168344e-08
-4.8649308e-08
-4.4993729e-08
-5.9976735e-08
-5.4057491e-08
-5.1573541e-08
-4.796555e-08
-6.0521389e-08
-5.6021622e-08
-5.446337e-08
-5.0947672e-08
-6.103381e-08
-5.7775541e-08
-5.7054556e-08
-5.3716428e-08
-6.1508461e-08
-5.927182e-08
-5.9168597e-08
-5.6086887e-08
-6.1896743e-08
-6.0460258e-08
-6.0733982e-08
-5.7962515e-08
-6.2098224e-08
-6.1264422e-08
-6.1728028e-08
-5.9292119e-08
-6.202343e-08
-6.1630804e-08
-6.2148136e-08
-6.0054005e-08
-6.160539e-08
-6.1513624e-08
-6.2011042e-08
-6.0250378e-08
-6.0792808e-08
-6.0888145e-08
-6.1350054e-08
-5.9902935e-08
-5.955168e-08
-5.9746394e-08
-6.0211064e-08
-5.9048923e-08
-5.7863642e-08
-5.8092345e-08
-5.8648254e-08
-5.7737348e-08
-5.5724393e-08
-5.5938295e-08
-5.6720459e-08
-5.602562e-08
-5.3141466e-08
-5.3302113e-08
-5.4488809e-08
-5.3976968e-08
-5.0131319e-08
-5.0205115e-08
-5.2015551e-08
-5.1658679e-08
-4.6716199e-08
-4.6670234e-08
-4.9363651e-08
-4.9141001e-08
-4.2921251e-08
-4.2720406e-08
-4.6596737e-08
-4.6496513e-08
-3.8772218e-08
-3.8377212e-08
-4.3779064e-08
-4.3799719e-08
-3.429402e-08
-3.3659818e-08
-4.097526e-08
-4.1126745e-08
-2.9511371e-08
-2.8584216e-08
-3.8249756e-08
-3.855487e-08
-2.4444216e-08
-2.3162674e-08
-3.5666487e-08
-3.6161174e-08
-1.9111087e-08
-1.7403041e-08
-3.3286515e-08
-3.4023074e-08
-1.3529135e-08
-1.1309999e-08
-3.1167304e-08
-3.2216906e-08
-7.7147219e-09
-4.8847213e-09
-2.9360827e-08
-3.0816723e-08
-1.6843605e-09
1.8744057e-09
-2.7911549e-08
-2.9892444e-08
4.5441314e-09
8.9707744e-09
-2.6854245e-08
-2.9508056e-08
1.0950279e-08
1.6408224e-08
-2.6211752e-08
-2.971951e-08
1.7509465e-08
2.4189358e-08
-2.5992752e-08
-3.0572351e-08
2.4191414e-08
3.2313532e-08
-2.618978e-08
-3.2099022e-08
3.0958768e-08
4.0774523e-08
-2.6777613e-08
-3.4316089e-08
3.7765932e-08
4.9557945e-08
-2.7712324e-08
-3.7221346e-08
4.4558377e-08
5.8638488e-08
-2.8931211e-08
-4.0790994e-08
5.127262e-08
6.7977128e-08
-3.0353864e-08
-4.497713e-08
5.7837054e-08
7.751847e-08
-3.1884595e-08
-4.9705815e-08
6.4173792e-08
8.7188496e-08
-3.341633e-08
-5.4876087e-08
7.0201551e-08
9.6893004e-08
-3.4835985e-08
-6.036035e-08
7.5839541e-08
1.0651713e-07
-3.603115e-08
-6.6006579e-08
8.1012104e-08
1.1592632e-07
-3.6897679e-08
-7.1642785e-08
8.5653742e-08
1.2496928e-07
-3.7347626e-08
-7.7084086e-08
8.9713973e-08
1.3348308e-07
-3.7316708e-08
-8.2142527e-08
9.3161389e-08
1.4130088e-07
-3.6770445e-08
-8.6639536e-08
9.5986281e-08
1.4826219e-07
-3.5708081e-08
-9.0420494e-08
9.8201341e-08
1.5422548e-07
-3.4163583e-08
-9.3370507e-08
9.9840248e-08
1.5908266e-07
-3.2203377e-08
-9.5430018e-08
1.0095444e-07
1.6277439e-07
-2.9921511e-08
-9.6608578e-08
1.0160935e-07
1.6530534e-07
-2.7432096e-08
-9.6994773e-08
1.0188088e-07
1.6675745e-07
-2.4862159e-08
-9.6760181e-08
1.0185531e-07
1.6729971e-07
-2.2346712e-08
-9.6156133e-08
1.0163483e-07
1.6719253e-07
-2.002973e-08
-9.5504985e-08
1.0135162e-07
1.6678815e-07
-1.806999e-08
-9.5178877e-08
1.0118784e-07
1.6651706e-07
-1.6640829e-08
-9.553058e-08
1.0138597e-07
1.6682211e-07
-1.5939781e-08
-9.6797034e-08
1.0225701e-07
1.6805361e-07
-1.6373251e-08
-9.9349281e-08
1.0435026e-07
1.7069398e-07
-1.900929e-08
-1.0475384e-07
1.0889057e-07
1.7639026e-07
-2.4859864e-08
-1.1502513e-07
1.1702187e-07
1.8709362e-07
-3.767626e-08
-4.1289079e-08
-3.7770659e-08
-4.1901204e-08
-3.0977809e-08
-3.8339861e-08
-4.5938191e-08
-4.696751e-08
-3.0007458e-08
-4.0113018e-08
-4.8583128e-08
-4.8956316e-08
-2.7679611e-08
-3.7633669e-08
-5.3652976e-08
-5.4786342e-08
-3.1061802e-08
-3.9294157e-08
-5.440221e-08
-5.6949741e-08
-3.5622603e-08
-4.2081843e-08
-5.5014067e-08
-5.8505681e-08
-4.0401954e-08
-4.5168793e-08
-5.5949491e-08
-5.9991126e-08
-4.5171299e-08
-4.8458466e-08
-5.6920249e-08
-6.117499e-08
-4.950754e-08
-5.1616587e-08
-5.7913946e-08
-6.2090726e-08
-5.3154312e-08
-5.4382421e-08
-5.8844149e-08
-6.274545e-08
-5.6035619e-08
-5.6613507e-08
-5.9578269e-08
-6.3087805e-08
-5.8111971e-08
-5.8237258e-08
-5.9997875e-08
-6.3043234e-08
-5.9396708e-08
-5.9229984e-08
-6.0012159e-08
-6.2576316e-08
-5.9934978e-08
-5.9603214e-08
-5.9562991e-08
-6.1662578e-08
-5.9789841e-08
-5.9392023e-08
-5.8617855e-08
-6.0291327e-08
-5.9033292e-08
-5.8646649e-08
-5.7165392e-08
-5.8463613e-08
-5.7740623e-08
-5.7426805e-08
-5.5210904e-08
-5.6189492e-08
-5.598726e-08
-5.5798004e-08
-5.2771978e-08
-5.3485307e-08
-5.3847299e-08
-5.3829327e-08
-4.9874372e-08
-5.0371112e-08
-5.1393124e-08
-5.159218e-08
-4.6548381e-08
-4.6868475e-08
-4.8695528e-08
-4.9159626e-08
-4.2825965e-08
-4.2998736e-08
-4.582399e-08
-4.6606016e-08
-3.8738738e-08
-3.878173e-08
-4.2846846e-08
-4.4006729e-08
-3.4316624e-08
-3.4234868e-08
-3.9831281e-08
-4.1437869e-08
-2.9585706e-08
-2.9372519e-08
-3.684309e-08
-3.8975995e-08
-2.4571561e-08
-2.4205674e-08
-3.3945662e-08
-3.669824e-08
-1.9297278e-08
-1.8742257e-08
-3.120033e-08
-3.46803e-08
-1.3783914e-08
-1.2985945e-08
-2.8664611e-08
-3.2996001e-08
-8.0512756e-09
-6.9369361e-09
-2.6391112e-08
-3.1715956e-08
-2.1188271e-09
-5.9225996e-10
-2.4426137e-08
-3.0906288e-08
3.9932366e-09
6.0536457e-09
-2.2808137e-08
-3.0626804e-08
1.0262789e-08
1.3008063e-08
-2.1566088e-08
-3.0928938e-08
1.6664492e-08
2.0278794e-08
-2.0717869e-08
-3.1853437e-08
2.3168511e-08
2.7872607e-08
-2.0268778e-08
-3.3427951e-08
2.9739343e-08
3.579334e-08
-2.0210344e-08
-3.566442e-08
3.6334915e-08
4.4039673e-08
-2.0519588e-08
-3.8556505e-08
4.2906102e-08
5.2602614e-08
-2.115896e-08
-4.2077177e-08
4.9396835e-08
6.1462805e-08
-2.2077115e-08
-4.6176663e-08
5.5744957e-08
7.0587774e-08
-2.3210682e-08
-5.0781043e-08
6.1883913e-08
7.9929344e-08
-2.4487108e-08
-5.5791816e-08
6.7745282e-08
8.942147e-08
-2.5828536e-08
-6.1086828e-08
7.3262053e-08
9.8978841e-08
-2.7156556e-08
-6.6522955e-08
7.8372386e-08
1.0849666e-07
-2.8397466e-08
-7.1940913e-08
8.3023485e-08
1.1785199e-07
-2.9487547e-08
-7.7172443e-08
8.7175065e-08
1.2690714e-07
-3.0377695e-08
-8.2049927e-08
9.0801857e-08
1.3551526e-07
-3.1036722e-08
-8.6418218e-08
9.3894639e-08
1.4352838e-07
-3.1452689e-08
-9.0148075e-08
9.6459485e-08
1.5080782e-07
-3.1631853e-08
-9.3150223e-08
9.8515246e-08
1.5723645e-07
-3.1595053e-08
-9.5388653e-08
1.0008979e-07
1.6273219e-07
-3.1373371e-08
-9.6891514e-08
1.0121661e-07
1.6726182e-07
-3.1001331e-08
-9.7757663e-08
1.0193265e-07
1.7085365e-07
-3.0513572e-08
-9.8156943e-08
1.022809e-07
1.7360733e-07
-2.9945209e-08
-9.8323191e-08
1.0231979e-07
1.7569939e-07
-2.9340528e-08
-9.8542129e-08
1.0214212e-07
1.7738575e-07
-2.8768891e-08
-9.9127082e-08
1.0189974e-07
1.7899032e-07
-2.8336721e-08
-1.0034921e-07
1.0181682e-07
1.8084245e-07
-2.8210146e-08
-1.0234634e-07
1.0219509e-07
1.8317749e-07
-2.8805535e-08
-1.0538599e-07
1.0356056e-07
1.8636583e-07
-3.1215343e-08
-1.1092031e-07
1.0703842e-07
1.9189399e-07
-3.6446311e-08
-1.208161e-07
1.1344962e-07
2.0146288e-07
)
;

boundaryField
{
    movingWall
    {
        type            zeroGradient;
    }
    CPLReceiveMD
    {
        type            zeroGradient;
    }
    streamwiseIn
    {
        type            cyclic;
    }
    streamwiseOut
    {
        type            cyclic;
    }
    front
    {
        type            cyclic;
    }
    back
    {
        type            cyclic;
    }
    procBoundary1to0
    {
        type            processor;
        value           nonuniform List<scalar> 
240
(
-3.964921e-08
-4.1415338e-08
-3.981665e-08
-4.1208183e-08
-3.2741726e-08
-3.851579e-08
-4.824691e-08
-4.6402914e-08
-3.1745317e-08
-4.0379148e-08
-5.0954289e-08
-4.8614902e-08
-2.9432723e-08
-3.7985011e-08
-5.591182e-08
-5.4668008e-08
-3.2770923e-08
-3.9705354e-08
-5.6442536e-08
-5.7004436e-08
-3.722257e-08
-4.2505445e-08
-5.6795894e-08
-5.8671689e-08
-4.1826406e-08
-4.5573165e-08
-5.7446382e-08
-6.0213189e-08
-4.6372938e-08
-4.8823164e-08
-5.8145369e-08
-6.1411884e-08
-5.0492921e-08
-5.1931754e-08
-5.8901325e-08
-6.2316457e-08
-5.3965771e-08
-5.4645816e-08
-5.9632662e-08
-6.294612e-08
-5.668801e-08
-5.682645e-08
-6.019499e-08
-6.3253968e-08
-5.8625725e-08
-5.8403952e-08
-6.0470624e-08
-6.3172108e-08
-5.9794391e-08
-5.9356484e-08
-6.0369855e-08
-6.2671209e-08
-6.0238449e-08
-5.9696256e-08
-5.9830579e-08
-6.1728718e-08
-6.0018646e-08
-5.9458193e-08
-5.8815997e-08
-6.0334439e-08
-5.9204008e-08
-5.8691912e-08
-5.7310705e-08
-5.8489117e-08
-5.7866834e-08
-5.7456293e-08
-5.5316482e-08
-5.6202117e-08
-5.6079813e-08
-5.5815948e-08
-5.2847979e-08
-5.3488961e-08
-5.3914685e-08
-5.3839095e-08
-4.9928559e-08
-5.0368879e-08
-5.1441878e-08
-5.1596368e-08
-4.6586614e-08
-4.6862688e-08
-4.8730611e-08
-4.9160177e-08
-4.2852606e-08
-4.2991089e-08
-4.5849122e-08
-4.6604348e-08
-3.8757002e-08
-3.8773398e-08
-4.286478e-08
-4.4003848e-08
-3.4329279e-08
-3.4226631e-08
-3.9844035e-08
-4.143446e-08
-2.9594461e-08
-2.9364845e-08
-3.6852125e-08
-3.897251e-08
-2.4577584e-08
-2.4198809e-08
-3.3952043e-08
-3.6694963e-08
-1.9301388e-08
-1.8736298e-08
-3.1204825e-08
-3.4677363e-08
-1.3786693e-08
-1.2980891e-08
-2.866777e-08
-3.2993456e-08
-8.0531355e-09
-6.9327308e-09
-2.6393329e-08
-3.1713804e-08
-2.1200574e-09
-5.8881604e-10
-2.4427689e-08
-3.0904502e-08
3.9924338e-09
6.0564283e-09
-2.2809222e-08
-3.0625346e-08
1.0262274e-08
1.3010285e-08
-2.1566845e-08
-3.0927764e-08
1.6664168e-08
2.028055e-08
-2.0718396e-08
-3.1852503e-08
2.3168312e-08
2.7873983e-08
-2.0269144e-08
-3.3427215e-08
2.9739226e-08
3.579441e-08
-2.0210598e-08
-3.5663845e-08
3.6334851e-08
4.4040499e-08
-2.0519763e-08
-3.8556059e-08
4.290607e-08
5.2603247e-08
-2.115908e-08
-4.2076833e-08
4.9396823e-08
6.1463287e-08
-2.2077196e-08
-4.61764e-08
5.5744957e-08
7.058814e-08
-2.3210737e-08
-5.0780843e-08
6.1883919e-08
7.992962e-08
-2.4487144e-08
-5.5791665e-08
6.7745291e-08
8.9421677e-08
-2.582856e-08
-6.1086713e-08
7.3262063e-08
9.8978996e-08
-2.7156571e-08
-6.6522868e-08
7.8372396e-08
1.0849677e-07
-2.8397475e-08
-7.1940848e-08
8.3023494e-08
1.1785208e-07
-2.9487552e-08
-7.7172395e-08
8.7175074e-08
1.2690721e-07
-3.0377698e-08
-8.2049891e-08
9.0801865e-08
1.355153e-07
-3.1036723e-08
-8.6418191e-08
9.3894645e-08
1.4352841e-07
-3.1452689e-08
-9.0148055e-08
9.645949e-08
1.5080785e-07
-3.1631852e-08
-9.3150208e-08
9.851525e-08
1.5723647e-07
-3.1595052e-08
-9.5388641e-08
1.0008979e-07
1.627322e-07
-3.137337e-08
-9.6891506e-08
1.0121661e-07
1.6726183e-07
-3.100133e-08
-9.7757657e-08
1.0193265e-07
1.7085366e-07
-3.0513571e-08
-9.8156939e-08
1.022809e-07
1.7360734e-07
-2.9945208e-08
-9.8323188e-08
1.0231979e-07
1.7569939e-07
-2.9340527e-08
-9.8542127e-08
1.0214212e-07
1.7738575e-07
-2.876889e-08
-9.9127081e-08
1.0189974e-07
1.7899032e-07
-2.8336721e-08
-1.0034921e-07
1.0181682e-07
1.8084246e-07
-2.8210146e-08
-1.0234634e-07
1.0219509e-07
1.8317749e-07
-2.8805535e-08
-1.0538599e-07
1.0356056e-07
1.8636583e-07
-3.1215343e-08
-1.1092031e-07
1.0703842e-07
1.9189399e-07
-3.6446311e-08
-1.208161e-07
1.1344962e-07
2.0146288e-07
)
;
    }
    procBoundary1to0throughback
    {
        type            processorCyclic;
        value           nonuniform List<scalar> 
240
(
-6.3950533e-09
-1.4624629e-08
-2.3685546e-08
-2.8289972e-08
-3.4981267e-08
-4.0924772e-08
-4.597538e-08
-5.0378326e-08
-5.4041193e-08
-5.694119e-08
-5.9093881e-08
-6.0521819e-08
-6.1262634e-08
-6.1362874e-08
-6.0877946e-08
-5.9869368e-08
-5.8402744e-08
-5.6545505e-08
-5.4365263e-08
-5.1929168e-08
-4.9303897e-08
-4.6555883e-08
-4.3751493e-08
-4.0956939e-08
-3.8237861e-08
-3.5658977e-08
-3.3281948e-08
-3.1164679e-08
-2.9359456e-08
-2.7910964e-08
-2.6854134e-08
-2.6211909e-08
-2.5993047e-08
-2.6190129e-08
-2.6777968e-08
-2.7712658e-08
-2.8931509e-08
-3.0354123e-08
-3.1884814e-08
-3.3416511e-08
-3.4836134e-08
-3.603127e-08
-3.6897776e-08
-3.7347702e-08
-3.7316768e-08
-3.6770492e-08
-3.5708117e-08
-3.4163611e-08
-3.2203398e-08
-2.9921527e-08
-2.7432107e-08
-2.4862168e-08
-2.2346719e-08
-2.0029735e-08
-1.8069993e-08
-1.6640831e-08
-1.5939782e-08
-1.6373252e-08
-1.9009291e-08
-2.4859866e-08
-3.5207957e-08
-3.1174948e-08
-3.2840243e-08
-3.2184821e-08
-3.5353629e-08
-3.9453077e-08
-4.3477555e-08
-4.7374381e-08
-5.0909351e-08
-5.3907639e-08
-5.6288725e-08
-5.8018636e-08
-5.9093069e-08
-5.9530641e-08
-5.9367565e-08
-5.86533e-08
-5.7446859e-08
-5.5813692e-08
-5.3823384e-08
-5.1548171e-08
-4.9062116e-08
-4.6440698e-08
-4.3760606e-08
-4.1099602e-08
-3.853609e-08
-3.6148139e-08
-3.4014074e-08
-3.2210775e-08
-3.0812607e-08
-2.9889729e-08
-2.9506304e-08
-2.9718416e-08
-3.0571696e-08
-3.2098656e-08
-3.4315909e-08
-3.7221281e-08
-4.0790998e-08
-4.4977172e-08
-4.9705875e-08
-5.4876153e-08
-6.0360415e-08
-6.6006639e-08
-7.1642838e-08
-7.7084131e-08
-8.2142565e-08
-8.6639567e-08
-9.0420519e-08
-9.3370527e-08
-9.5430034e-08
-9.660859e-08
-9.6994782e-08
-9.6760188e-08
-9.6156138e-08
-9.5504989e-08
-9.517888e-08
-9.5530583e-08
-9.6797036e-08
-9.9349283e-08
-1.0475384e-07
-1.1502513e-07
-3.3827914e-08
-4.5193568e-08
-5.0133385e-08
-5.5460378e-08
-5.6576141e-08
-5.7214972e-08
-5.8105299e-08
-5.8962453e-08
-5.9767675e-08
-6.0458825e-08
-6.0937378e-08
-6.1105879e-08
-6.0891953e-08
-6.0246255e-08
-5.9138651e-08
-5.7555531e-08
-5.5497437e-08
-5.2976413e-08
-5.00129e-08
-4.6632516e-08
-4.2863187e-08
-3.8732858e-08
-3.4267557e-08
-2.9493343e-08
-2.4432102e-08
-1.9103114e-08
-1.3524022e-08
-7.7115581e-09
-1.6825014e-09
4.5451356e-09
1.0950738e-08
1.7509589e-08
2.4191343e-08
3.0958594e-08
3.7765712e-08
4.4558147e-08
5.1272399e-08
5.7836854e-08
6.4173617e-08
7.0201402e-08
7.5839416e-08
8.1012001e-08
8.5653659e-08
8.9713906e-08
9.3161336e-08
9.5986239e-08
9.8201309e-08
9.9840223e-08
1.0095442e-07
1.0160934e-07
1.0188087e-07
1.018553e-07
1.0163483e-07
1.0135162e-07
1.0118783e-07
1.0138597e-07
1.02257e-07
1.0435026e-07
1.0889057e-07
1.1702187e-07
-2.3296943e-08
-3.0706018e-08
-3.5076412e-08
-4.195357e-08
-4.5509838e-08
-4.8434311e-08
-5.1374734e-08
-5.4003108e-08
-5.6254791e-08
-5.8081161e-08
-5.9410907e-08
-6.0210892e-08
-6.0436787e-08
-6.0078321e-08
-5.9141857e-08
-5.7644091e-08
-5.5608045e-08
-5.3060302e-08
-5.0029131e-08
-4.6542924e-08
-4.262885e-08
-3.8311741e-08
-3.3613239e-08
-2.8551229e-08
-2.3139441e-08
-1.7386809e-08
-1.1298745e-08
-4.8769865e-09
1.8796668e-09
8.9743089e-09
1.6410562e-08
2.4190875e-08
3.2314492e-08
4.077511e-08
4.9558285e-08
5.8638669e-08
6.7977208e-08
7.7518489e-08
8.718848e-08
9.689297e-08
1.0651708e-07
1.1592628e-07
1.2496924e-07
1.3348304e-07
1.4130085e-07
1.4826216e-07
1.5422546e-07
1.5908264e-07
1.6277438e-07
1.6530532e-07
1.6675745e-07
1.672997e-07
1.6719253e-07
1.6678814e-07
1.6651706e-07
1.6682211e-07
1.6805361e-07
1.7069398e-07
1.7639026e-07
1.8709362e-07
)
;
    }
}


// ************************************************************************* //
