/*--------------------------------*- C++ -*----------------------------------*\
| =========                 |                                                 |
| \\      /  F ield         | OpenFOAM: The Open Source CFD Toolbox           |
|  \\    /   O peration     | Version:  3.0.1                                 |
|   \\  /    A nd           | Web:      www.OpenFOAM.org                      |
|    \\/     M anipulation  |                                                 |
\*---------------------------------------------------------------------------*/
FoamFile
{
    version     2.0;
    format      ascii;
    class       volVectorField;
    location    "75";
    object      U;
}
// * * * * * * * * * * * * * * * * * * * * * * * * * * * * * * * * * * * * * //

dimensions      [0 1 -1 0 0 0 0];

internalField   nonuniform List<vector> 
480
(
(-0.006824151 7.4291143e-10 1.1988498e-12)
(-0.006824162 7.382979e-10 8.2822153e-12)
(-0.0068241616 -7.2784409e-10 4.6830292e-12)
(-0.0068241523 -8.2521357e-10 1.0123569e-11)
(-0.00065055165 2.0084686e-09 2.5077956e-12)
(-0.00065057359 2.2100621e-09 1.6540436e-11)
(-0.00065057222 -2.0878377e-09 8.0545463e-12)
(-0.00065055488 -2.3595137e-09 1.9246879e-11)
(0.00062650164 3.4064311e-09 3.427087e-12)
(0.00062648677 3.9740763e-09 1.8640016e-11)
(0.00062648778 -3.6999501e-09 7.9162169e-12)
(0.00062649848 -4.201634e-09 2.0746935e-11)
(0.00072844872 4.1945134e-09 4.3507174e-12)
(0.00072844018 4.9121982e-09 1.792927e-11)
(0.00072844126 -4.6082389e-09 7.456423e-12)
(0.00072844645 -5.2917244e-09 1.9431011e-11)
(0.00075945095 3.8494738e-09 5.0309286e-12)
(0.00075945346 4.6910938e-09 1.6201647e-11)
(0.00075945441 -4.3932312e-09 7.1015694e-12)
(0.00075944952 -5.183618e-09 1.7337831e-11)
(0.00074861734 2.7324033e-09 5.4760388e-12)
(0.0007486226 3.5630115e-09 1.4297171e-11)
(0.00074862326 -3.3947258e-09 6.6587555e-12)
(0.00074861716 -4.1530814e-09 1.503755e-11)
(0.00070266868 1.7992439e-09 5.4739949e-12)
(0.00070267352 2.5072765e-09 1.2285426e-11)
(0.00070267404 -2.5637926e-09 6.4415148e-12)
(0.00070266895 -3.1857091e-09 1.2756908e-11)
(0.00066135251 1.1033864e-09 5.1473229e-12)
(0.00066135602 1.6734525e-09 1.0406944e-11)
(0.00066135642 -1.9551017e-09 6.0632038e-12)
(0.00066135292 -2.4325503e-09 1.0618159e-11)
(0.00064180281 6.9154271e-10 4.6436614e-12)
(0.00064180427 1.1288048e-09 8.6715161e-12)
(0.00064180454 -1.6120409e-09 5.4879219e-12)
(0.00064180329 -1.9569273e-09 8.7009224e-12)
(0.00063574387 6.0642946e-10 4.0934671e-12)
(0.0006357432 9.2774199e-10 7.1079345e-12)
(0.00063574337 -1.5777164e-09 4.7118698e-12)
(0.00063574429 -1.8124933e-09 7.0342811e-12)
(0.00062738326 7.7442015e-10 3.4672775e-12)
(0.00062738115 1.0114278e-09 5.7378838e-12)
(0.00062738125 -1.7802357e-09 3.9231847e-12)
(0.00062738351 -1.9402386e-09 5.6208078e-12)
(0.00060589679 1.0569313e-09 2.8777581e-12)
(0.00060589422 1.2457364e-09 4.5782339e-12)
(0.00060589428 -2.082977e-09 3.2089589e-12)
(0.00060589686 -2.2057711e-09 4.4479116e-12)
(0.00056855559 1.3362327e-09 2.3446402e-12)
(0.00056855328 1.5062483e-09 3.6175408e-12)
(0.00056855332 -2.3695562e-09 2.5942467e-12)
(0.00056855553 -2.4840553e-09 3.4924056e-12)
(0.0005185898 1.5565771e-09 1.8816757e-12)
(0.000518588 1.7260049e-09 2.8346343e-12)
(0.00051858802 -2.5848681e-09 2.075854e-12)
(0.00051858967 -2.7078909e-09 2.728735e-12)
(0.00046181703 1.7220594e-09 1.491491e-12)
(0.00046181561 1.8996484e-09 2.2052963e-12)
(0.00046181562 -2.7333341e-09 1.6446932e-12)
(0.00046181688 -2.8720668e-09 2.1243398e-12)
(0.00040406604 1.874386e-09 1.170297e-12)
(0.00040406464 2.0638495e-09 1.7063821e-12)
(0.00040406463 -2.8568254e-09 1.2921742e-12)
(0.0004040659 -3.0135098e-09 1.6497141e-12)
(0.00034987939 2.0691541e-09 9.1043873e-13)
(0.00034987757 2.2735411e-09 1.3149069e-12)
(0.00034987753 -3.0111327e-09 1.0079729e-12)
(0.00034987925 -3.1875728e-09 1.2795824e-12)
(0.00030224262 2.3596797e-09 7.0327334e-13)
(0.00030223997 2.5845286e-09 1.0108772e-12)
(0.00030223989 -3.2499401e-09 7.8186201e-13)
(0.00030224246 -3.4506862e-09 9.9246924e-13)
(0.00026290485 2.7897352e-09 5.3988646e-13)
(0.00026290105 3.0449605e-09 7.7630608e-13)
(0.00026290091 -3.6176499e-09 6.0406734e-13)
(0.00026290465 -3.8518301e-09 7.7046484e-13)
(0.00023293038 3.3928795e-09 4.1209867e-13)
(0.00023292515 3.6938351e-09 5.9607852e-13)
(0.00023292494 -4.148719e-09 4.6560116e-13)
(0.00023293011 -4.4310323e-09 5.9900038e-13)
(0.00021326599 4.1951998e-09 3.1299177e-13)
(0.00021325911 4.5634781e-09 4.5810679e-13)
(0.00021325882 -4.8703605e-09 3.5877652e-13)
(0.00021326562 -5.2218214e-09 4.6650989e-13)
(0.00020523539 5.2189075e-09 2.3646784e-13)
(0.00020522665 5.6833406e-09 3.5265734e-13)
(0.00020522625 -5.8060718e-09 2.7658682e-13)
(0.00020523487 -6.2549849e-09 3.6397267e-13)
(0.00021095474 6.4852545e-09 1.7786349e-13)
(0.00021094394 7.0834146e-09 2.7188217e-13)
(0.0002109434 -6.9784315e-09 2.0933888e-13)
(0.00021095403 -7.5619293e-09 2.8427255e-13)
(0.00023370542 8.0160641e-09 1.3315227e-13)
(0.00023369234 8.796431e-09 2.0991212e-13)
(0.00023369162 -8.4107545e-09 1.5692351e-13)
(0.00023370446 -9.176845e-09 2.2225447e-13)
(0.00027831343 9.8337572e-09 9.9236155e-14)
(0.00027829786 1.0858609e-08 1.6212396e-13)
(0.0002782969 -1.0126997e-08 1.1712959e-13)
(0.00027831217 -1.1137447e-08 1.7390849e-13)
(0.00035158313 1.1960033e-08 7.3658011e-14)
(0.00035156482 1.3309188e-08 1.2504651e-13)
(0.00035156357 -1.2150237e-08 8.7193736e-14)
(0.00035158146 -1.3484412e-08 1.3614953e-13)
(0.00046282382 1.441343e-08 5.4461548e-14)
(0.00046280258 1.6188808e-08 9.6480068e-14)
(0.00046280095 -1.4500353e-08 6.4790094e-14)
(0.00046282164 -1.6259722e-08 1.0661725e-13)
(0.00062449755 1.7206021e-08 4.0113418e-14)
(0.00062447323 1.9536913e-08 7.4527223e-14)
(0.00062447111 -1.7190702e-08 4.8066097e-14)
(0.00062449474 -1.9504115e-08 8.3471807e-14)
(0.00085300601 2.0339453e-08 2.9426766e-14)
(0.00085297854 2.3388477e-08 5.7629579e-14)
(0.00085297581 -2.0224153e-08 3.5598776e-14)
(0.00085300241 -2.3253806e-08 6.5309208e-14)
(0.001169625 2.3800554e-08 2.14875e-14)
(0.0011695944 2.7770121e-08 4.4589494e-14)
(0.0011695909 -2.3588684e-08 2.6313755e-14)
(0.0011696204 -2.7536571e-08 5.1045548e-14)
(0.0016015852 2.7556696e-08 1.561204e-14)
(0.0016015517 3.2695645e-08 3.4504432e-14)
(0.0016015473 -2.7252749e-08 1.9406574e-14)
(0.0016015795 -3.2367292e-08 3.9840069e-14)
(0.0021832869 3.1551239e-08 1.1281699e-14)
(0.0021832509 3.8161108e-08 2.6690535e-14)
(0.0021832453 -3.1160719e-08 1.4275931e-14)
(0.0021832798 -3.7743036e-08 3.1038983e-14)
(0.002957624 3.5699417e-08 8.1073124e-15)
(0.0029575861 4.4139567e-08 2.062988e-14)
(0.0029575791 -3.522877e-08 1.0472046e-14)
(0.0029576153 -4.36378e-08 2.4131697e-14)
(0.0039773769 3.9885175e-08 5.7878965e-15)
(0.0039773381 5.0575696e-08 1.59258e-14)
(0.0039773295 -3.9341724e-08 7.6583203e-15)
(0.0039773665 -4.9997136e-08 1.8717822e-14)
(0.005306616 4.395957e-08 4.1062418e-15)
(0.0053065775 5.7380551e-08 1.2274925e-14)
(0.0053065669 -4.335144e-08 5.5823758e-15)
(0.0053066037 -5.6732909e-08 1.4481415e-14)
(0.0070220381 4.7741409e-08 2.8914821e-15)
(0.0070220013 6.4426866e-08 9.4433925e-15)
(0.0070219886 -4.7077452e-08 4.0552949e-15)
(0.0070220237 -6.3718598e-08 1.1173448e-14)
(0.0092141383 5.1020859e-08 2.0198781e-15)
(0.0092141052 7.154536e-08 7.249877e-15)
(0.00921409 -5.0310558e-08 2.9355002e-15)
(0.0092141221 -7.0785587e-08 8.5968275e-15)
(0.011988101 5.3566661e-08 1.3990699e-15)
(0.011988073 7.852264e-08 5.5532708e-15)
(0.011988055 -5.2820016e-08 2.1171342e-15)
(0.011988083 -7.7721051e-08 6.5953461e-15)
(0.015464273 5.513744e-08 9.6006444e-16)
(0.015464254 8.5101387e-08 4.243517e-15)
(0.015464233 -5.4364822e-08 1.5214025e-15)
(0.015464253 -8.4268113e-08 5.0450527e-15)
(0.019778084 5.5497275e-08 6.5193185e-16)
(0.019778076 9.0983573e-08 3.2349376e-15)
(0.019778053 -5.4709249e-08 1.0893755e-15)
(0.019778065 -9.0129032e-08 3.8476871e-15)
(0.025079265 5.4435249e-08 4.3773197e-16)
(0.025079271 9.5837556e-08 2.4593806e-15)
(0.025079244 -5.3642348e-08 7.7716761e-16)
(0.025079247 -9.4972254e-08 2.9264087e-15)
(0.031530223 5.1788105e-08 2.8989962e-16)
(0.031530245 9.9309855e-08 1.8648003e-15)
(0.031530216 -5.1000567e-08 5.5221706e-16)
(0.031530207 -9.8444143e-08 2.219874e-15)
(0.039303479 4.7464438e-08 1.8747336e-16)
(0.039303519 1.0104232e-07 1.4102122e-15)
(0.039303488 -4.6691904e-08 3.9269097e-16)
(0.039303468 -1.0018612e-07 1.6793479e-15)
(0.048578076 4.1468161e-08 1.1686088e-16)
(0.048578137 1.0069522e-07 1.0636818e-15)
(0.048578105 -4.0719349e-08 2.8079045e-16)
(0.048578072 -9.9857708e-08 1.2672457e-15)
(0.05953495 3.3918292e-08 6.8927262e-17)
(0.059535033 9.7976279e-08 7.996888e-16)
(0.059535 -3.3200673e-08 2.0219001e-16)
(0.059534956 -9.7165581e-08 9.5462744e-16)
(0.072351292 2.5061713e-08 3.5859473e-17)
(0.072351397 9.267509e-08 5.9922931e-16)
(0.072351364 -2.4381229e-08 1.4733769e-16)
(0.072351311 -9.1897999e-08 7.1832464e-16)
(0.087194035 1.5275441e-08 1.5302432e-17)
(0.087194162 8.4701428e-08 4.4761326e-16)
(0.087194129 -1.463631e-08 1.0809441e-16)
(0.08719407 -8.396319e-08 5.3990746e-16)
(0.10421266 5.0553992e-09 5.5158207e-18)
(0.1042128 7.412476e-08 3.3328403e-16)
(0.10421277 -4.4600669e-09 7.7671058e-17)
(0.10421271 -7.3428991e-08 4.0518243e-16)
(0.12353157 -5.0102037e-09 2.1699811e-18)
(0.12353173 6.1211007e-08 2.4595893e-16)
(0.1235317 5.5609e-09 5.3136971e-17)
(0.12353164 -6.0559788e-08 3.0609748e-16)
(0.1452425 -1.4283259e-08 3.5642397e-19)
(0.14524267 4.6451187e-08 1.8019428e-16)
(0.14524264 1.4789663e-08 3.6080918e-17)
(0.14524259 -4.5845392e-08 2.320436e-16)
(0.16939715 -2.2131643e-08 -4.6234836e-18)
(0.16939733 3.0575394e-08 1.3095268e-16)
(0.1693973 2.2594544e-08 2.7780593e-17)
(0.16939726 -3.0015268e-08 1.7652688e-16)
(0.19600076 -2.7993821e-08 -7.383359e-18)
(0.19600093 1.4544745e-08 9.7628266e-17)
(0.19600091 2.8413423e-08 2.2964294e-17)
(0.19600089 -1.4030709e-08 1.293441e-16)
(0.22500684 -3.1445285e-08 -5.7276249e-18)
(0.22500701 -4.867851e-10 7.4913271e-17)
(0.22500698 3.1819949e-08 1.6619584e-17)
(0.22500698 9.5316926e-10 9.2416063e-17)
(0.25631363 -3.2258336e-08 -2.5859023e-19)
(0.25631378 -1.3250423e-08 5.9393875e-17)
(0.25631374 3.2583294e-08 6.834035e-18)
(0.25631377 1.3665534e-08 6.4007495e-17)
(0.28976256 -3.0445872e-08 3.1207852e-18)
(0.28976267 -2.2489734e-08 4.5326328e-17)
(0.28976263 3.071243e-08 9.6070352e-19)
(0.28976269 2.2847418e-08 4.4979898e-17)
(0.32513897 -2.6276753e-08 1.3770648e-18)
(0.32513905 -2.7131062e-08 3.1620226e-17)
(0.32513901 2.6472525e-08 3.2715211e-18)
(0.32513909 2.7423023e-08 3.5118095e-17)
(0.36217534 -2.0256028e-08 2.4709779e-18)
(0.36217539 -2.6483942e-08 2.3342874e-17)
(0.36217534 2.0365139e-08 -3.4169505e-18)
(0.36217543 2.670132e-08 3.0974797e-17)
(0.40055684 -1.3148697e-08 1.2073866e-17)
(0.40055686 -2.0619766e-08 1.3238282e-17)
(0.4005568 1.3151217e-08 -1.6741798e-17)
(0.4005569 2.0754938e-08 3.2212332e-17)
(0.43992916 -6.2012169e-09 2.0394825e-17)
(0.43992914 -1.1273802e-08 7.4021219e-18)
(0.4399291 6.0873965e-09 -2.0519816e-17)
(0.43992919 1.1338924e-08 3.0577058e-17)
(0.47990827 -1.6127108e-09 1.2908906e-17)
(0.47990826 -3.3705822e-09 1.4520993e-18)
(0.47990824 1.5478567e-09 -5.4625369e-18)
(0.47990828 3.3885593e-09 2.4580831e-17)
(-0.0068241522 6.5994391e-10 -3.770591e-10)
(-0.0068241629 7.3378367e-10 -1.3469139e-10)
(-0.0068241625 -7.2802993e-10 -2.5613268e-11)
(-0.0068241536 -7.9939862e-10 -1.4422196e-10)
(-0.00065055532 1.9578578e-09 2.7566387e-10)
(-0.00065057574 2.1586757e-09 -3.0052484e-11)
(-0.0006505744 -2.0079113e-09 4.3174491e-11)
(-0.00065055874 -2.2548582e-09 -4.05146e-11)
(0.00062649864 3.3662535e-09 2.7110431e-10)
(0.00062648453 3.8562153e-09 -2.0967561e-12)
(0.00062648552 -3.5293766e-09 5.9008236e-11)
(0.0006264956 -4.0178068e-09 -1.2248911e-11)
(0.00072844614 4.1831867e-09 2.7166977e-10)
(0.00072843845 4.797421e-09 1.7337864e-11)
(0.00072843953 -4.4357073e-09 6.1666149e-11)
(0.00072844384 -5.0849409e-09 7.6652578e-12)
(0.00075944898 3.8366851e-09 2.4405287e-10)
(0.00075945209 4.5835914e-09 3.084508e-11)
(0.00075945301 -4.217363e-09 6.0621743e-11)
(0.0007594476 -4.976916e-09 2.2522981e-11)
(0.00074861672 2.7583077e-09 2.0062656e-10)
(0.00074862215 3.4916726e-09 3.4440921e-11)
(0.00074862278 -3.2569026e-09 5.5590617e-11)
(0.00074861659 -3.9882093e-09 2.846964e-11)
(0.00070266855 1.8576768e-09 1.531589e-10)
(0.00070267346 2.4788974e-09 3.2170989e-11)
(0.00070267395 -2.4707132e-09 4.7919636e-11)
(0.00070266882 -3.078156e-09 2.7774029e-11)
(0.00066135259 1.1708637e-09 1.1107372e-10)
(0.00066135614 1.666965e-09 2.7422821e-11)
(0.00066135651 -1.8862053e-09 3.9744899e-11)
(0.00066135299 -2.3640825e-09 2.4209678e-11)
(0.00064180303 7.5841962e-10 7.8534666e-11)
(0.0006418045 1.1323347e-09 2.2567185e-11)
(0.00064180476 -1.5585492e-09 3.2309678e-11)
(0.0006418035 -1.9148182e-09 2.0284704e-11)
(0.00063574412 6.697455e-10 5.5430533e-11)
(0.00063574344 9.3724906e-10 1.8558134e-11)
(0.0006357436 -1.5368594e-09 2.6065766e-11)
(0.00063574452 -1.7897184e-09 1.6952114e-11)
(0.00062738341 8.3265689e-10 3.9495006e-11)
(0.0006273813 1.0244009e-09 1.5434983e-11)
(0.00062738139 -1.7481703e-09 2.1071417e-11)
(0.00062738365 -1.9303285e-09 1.4304327e-11)
(0.00060589681 1.1096591e-09 2.885832e-11)
(0.00060589425 1.2599789e-09 1.2990358e-11)
(0.0006058943 -2.0554814e-09 1.7081981e-11)
(0.00060589687 -2.2027726e-09 1.2180138e-11)
(0.00056855551 1.3837346e-09 2.1538278e-11)
(0.00056855322 1.5203618e-09 1.0978417e-11)
(0.00056855325 -2.3436811e-09 1.385645e-11)
(0.00056855543 -2.4837335e-09 1.038494e-11)
(0.00051858966 1.5998681e-09 1.631528e-11)
(0.0005185879 1.7397385e-09 9.2421526e-12)
(0.00051858791 -2.5591333e-09 1.1209956e-11)
(0.00051858952 -2.7078978e-09 8.8001641e-12)
(0.00046181688 1.7624195e-09 1.2466923e-11)
(0.0004618155 1.9136233e-09 7.707832e-12)
(0.0004618155 -2.7073128e-09 9.0189648e-12)
(0.00046181673 -2.8714168e-09 7.3750304e-12)
(0.00040406592 1.9129557e-09 9.5582978e-12)
(0.00040406455 2.0790715e-09 6.3506325e-12)
(0.00040406453 -2.8306984e-09 7.2041207e-12)
(0.00040406577 -3.0120714e-09 6.0982456e-12)
(0.00034987929 2.1067009e-09 7.3244004e-12)
(0.0003498775 2.2910151e-09 5.1656217e-12)
(0.00034987745 -2.9853302e-09 5.7088708e-12)
(0.00034987915 -3.1856315e-09 4.9732901e-12)
(0.00030224255 2.3965458e-09 5.59713e-12)
(0.00030223992 2.6050607e-09 4.1502834e-12)
(0.00030223983 -3.2249125e-09 4.4892385e-12)
(0.00030224239 -3.448651e-09 4.0032834e-12)
(0.00026290479 2.8259268e-09 4.2611206e-12)
(0.000262901 3.0691199e-09 3.2980036e-12)
(0.00026290086 -3.5937654e-09 3.5061012e-12)
(0.00026290459 -3.8501035e-09 3.1850652e-12)
(0.00023293032 3.4281945e-09 3.2312708e-12)
(0.0002329251 3.7220159e-09 2.5962291e-12)
(0.00023292488 -4.126241e-09 2.7231562e-12)
(0.00023293005 -4.4299815e-09 2.5085793e-12)
(0.00021326592 4.2293443e-09 2.441889e-12)
(0.00021325905 4.5959944e-09 2.0281347e-12)
(0.00021325874 -4.8494599e-09 2.1068354e-12)
(0.00021326554 -5.2217969e-09 1.9589036e-12)
(0.00020523529 5.2515893e-09 1.8398054e-12)
(0.00020522656 5.7205173e-09 1.5747949e-12)
(0.00020522614 -5.7868706e-09 1.6256691e-12)
(0.00020523476 -6.2563502e-09 1.5187586e-12)
(0.0002109546 6.5162338e-09 1.3834491e-12)
(0.00021094381 7.1256453e-09 1.2168237e-12)
(0.00021094325 -6.9611473e-09 1.2456642e-12)
(0.00021095388 -7.5650939e-09 1.1701052e-12)
(0.00023370522 8.0451788e-09 1.0387505e-12)
(0.00023369216 8.8442208e-09 9.3629197e-13)
(0.00023369141 -8.3955123e-09 9.4429261e-13)
(0.00023370425 -9.1822759e-09 8.9668188e-13)
(0.00027831316 9.8609237e-09 7.7926583e-13)
(0.0002782976 1.091265e-08 7.1619981e-13)
(0.00027829662 -1.0113737e-08 7.1329403e-13)
(0.00027831188 -1.1145674e-08 6.8419358e-13)
(0.00035158276 1.198522e-08 5.8445613e-13)
(0.00035156448 1.3370288e-08 5.442616e-13)
(0.00035156319 -1.2138917e-08 5.3810888e-13)
(0.00035158107 -1.3496027e-08 5.2033482e-13)
(0.00046282333 1.4436627e-08 4.3844417e-13)
(0.00046280213 1.625777e-08 4.1183216e-13)
(0.00046280045 -1.4490925e-08 4.0568122e-13)
(0.00046282113 -1.6275368e-08 3.9470418e-13)
(0.00062449691 1.7227222e-08 3.2909812e-13)
(0.00062447264 1.961454e-08 3.1098227e-13)
(0.00062447047 -1.7183083e-08 3.0578904e-13)
(0.00062449407 -1.9524479e-08 2.9885279e-13)
(0.00085300518 2.0358641e-08 2.4719694e-13)
(0.00085297779 2.3475549e-08 2.3453722e-13)
(0.000852975 -2.0218198e-08 2.3050317e-13)
(0.00085300156 -2.3279613e-08 2.2589345e-13)
(0.001169624 2.381768e-08 1.8579602e-13)
(0.0011695935 2.786732e-08 1.7671473e-13)
(0.0011695899 -2.3584166e-08 1.7377306e-13)
(0.0011696194 -2.7568569e-08 1.7048089e-13)
(0.0016015839 2.7571672e-08 1.3972231e-13)
(0.0016015505 3.2803479e-08 1.3302339e-13)
(0.001601546 -2.7249333e-08 1.3101585e-13)
(0.0016015781 -3.2406229e-08 1.2848107e-13)
(0.0021832852 3.1563926e-08 1.0511335e-13)
(0.0021832494 3.8279824e-08 1.0003621e-13)
(0.0021832437 -3.1157944e-08 9.8776615e-14)
(0.0021832781 -3.7789628e-08 9.6696547e-14)
(0.002957622 3.5709626e-08 7.9095344e-14)
(0.0029575844 4.4269073e-08 7.5147969e-14)
(0.0029575772 -3.5226032e-08 7.4457713e-14)
(0.0029576133 -4.369269e-08 7.2674478e-14)
(0.0039773745 3.9892681e-08 5.9511657e-14)
(0.003977336 5.0715476e-08 5.638702e-14)
(0.0039773272 -3.9338267e-08 5.6107365e-14)
(0.0039773641 -5.006084e-08 5.4543432e-14)
(0.0053066131 4.3964129e-08 4.4769181e-14)
(0.005306575 5.752959e-08 4.2257638e-14)
(0.0053065642 -4.3346357e-08 4.2258107e-14)
(0.0053066008 -5.6805752e-08 4.0876919e-14)
(0.0070220347 4.7742798e-08 3.3662193e-14)
(0.0070219984 6.4583582e-08 3.1627381e-14)
(0.0070219854 -4.7069708e-08 3.1806262e-14)
(0.0070220204 -6.3800638e-08 3.058982e-14)
(0.0092141344 5.1018928e-08 2.5293932e-14)
(0.0092141018 7.1707554e-08 2.3638819e-14)
(0.0092140864 -5.0299029e-08 2.3919743e-14)
(0.0092141182 -7.0876528e-08 2.2858094e-14)
(0.011988096 5.3561405e-08 1.8990438e-14)
(0.011988069 7.8687463e-08 1.7643145e-14)
(0.011988051 -5.2803557e-08 1.7971607e-14)
(0.011988078 -7.782015e-08 1.7055606e-14)
(0.015464267 5.5129082e-08 1.4243947e-14)
(0.015464249 8.5265332e-08 1.3149085e-14)
(0.015464228 -5.4342365e-08 1.348797e-14)
(0.015464249 -8.437408e-08 1.2707606e-14)
(0.019778079 5.5486372e-08 1.0672263e-14)
(0.019778072 9.1142506e-08 9.7851968e-15)
(0.019778048 -5.467992e-08 1.0110562e-14)
(0.01977806 -9.0239944e-08 9.4541929e-15)
(0.025079259 5.4422795e-08 7.9862833e-15)
(0.025079266 9.5986781e-08 7.2709691e-15)
(0.025079239 -5.3605617e-08 7.5685696e-15)
(0.025079241 -9.5085474e-08 7.0236734e-15)
(0.031530217 5.1775626e-08 5.9686099e-15)
(0.031530239 9.9444225e-08 5.3942982e-15)
(0.03153021 -5.0956394e-08 5.65725e-15)
(0.031530201 -9.8556275e-08 5.2101504e-15)
(0.039303472 4.7454071e-08 4.4539408e-15)
(0.039303514 1.0115641e-07 3.9966788e-15)
(0.039303482 -4.664089e-08 4.2218668e-15)
(0.039303461 -1.00293e-07 3.8579311e-15)
(0.04857807 4.1462671e-08 3.3190027e-15)
(0.048578132 1.0078353e-07 2.9562061e-15)
(0.048578099 -4.0662852e-08 3.1443041e-15)
(0.048578066 -9.9954496e-08 2.8522954e-15)
(0.059534944 3.3921026e-08 2.4696311e-15)
(0.059535028 9.8033549e-08 2.1820638e-15)
(0.059534994 -3.3140872e-08 2.3361852e-15)
(0.05953495 -9.7246874e-08 2.1060748e-15)
(0.072351286 2.507645e-08 1.8333525e-15)
(0.072351392 9.269664e-08 1.6081426e-15)
(0.072351358 -2.4321098e-08 1.732706e-15)
(0.072351305 -9.1958124e-08 1.5515882e-15)
(0.087194029 1.5306114e-08 1.3572153e-15)
(0.087194157 8.4683575e-08 1.1834007e-15)
(0.087194123 -1.4579483e-08 1.2828556e-15)
(0.087194065 -8.3996578e-08 1.1408643e-15)
(0.10421265 5.1056833e-09 1.0024234e-15)
(0.1042128 7.4065287e-08 8.6711635e-16)
(0.10421277 -4.4105728e-09 9.4766713e-16)
(0.1042127 -7.3430699e-08 8.3845188e-16)
(0.12353157 -4.9374251e-09 7.3902645e-16)
(0.12353173 6.1109658e-08 6.3459086e-16)
(0.1235317 5.5990544e-09 6.9844126e-16)
(0.12353164 -6.0526128e-08 6.1268497e-16)
(0.1452425 -1.4186545e-08 5.4405706e-16)
(0.14524267 4.631016e-08 4.6140957e-16)
(0.14524264 1.4813019e-08 5.1251825e-16)
(0.14524259 -4.577466e-08 4.4877508e-16)
(0.16939715 -2.2011682e-08 3.9986322e-16)
(0.16939733 3.0399781e-08 3.3616403e-16)
(0.1693973 2.26008e-08 3.7448439e-16)
(0.16939726 -2.9908492e-08 3.2681353e-16)
(0.19600076 -2.7854038e-08 2.9554385e-16)
(0.19600094 1.4342848e-08 2.4547436e-16)
(0.19600091 2.8402082e-08 2.7021437e-16)
(0.19600089 -1.389234e-08 2.3699031e-16)
(0.22500684 -3.1292251e-08 2.1881827e-16)
(0.22500701 -7.0337975e-10 1.8504281e-16)
(0.22500698 3.1792877e-08 1.9362594e-16)
(0.22500698 1.1147678e-09 1.6759911e-16)
(0.25631364 -3.2101767e-08 1.6445236e-16)
(0.25631378 -1.3467155e-08 1.4170795e-16)
(0.25631375 3.2545103e-08 1.3895766e-16)
(0.25631378 1.3838051e-08 1.1587607e-16)
(0.28976256 -3.0298007e-08 1.2099195e-16)
(0.28976268 -2.2689801e-08 1.1746817e-16)
(0.28976264 3.0670551e-08 9.8346371e-17)
(0.28976269 2.3015128e-08 7.4738474e-17)
(0.32513898 -2.6150996e-08 9.4862412e-17)
(0.32513906 -2.7296884e-08 9.7451575e-17)
(0.32513901 2.6436999e-08 6.5035127e-17)
(0.32513909 2.7568351e-08 4.975681e-17)
(0.36217535 -2.0165227e-08 7.8081386e-17)
(0.3621754 -2.6601205e-08 8.6823914e-17)
(0.36217535 2.0349585e-08 3.7585098e-17)
(0.36217544 2.6809299e-08 2.9076968e-17)
(0.40055685 -1.3104578e-08 6.0903063e-17)
(0.40055686 -2.068946e-08 7.5776526e-17)
(0.40055681 1.3176587e-08 2.115054e-17)
(0.40055691 2.0828904e-08 1.9541756e-17)
(0.43992916 -6.2082092e-09 5.1041965e-17)
(0.43992915 -1.1325582e-08 5.9722042e-17)
(0.4399291 6.1922054e-09 1.3994144e-17)
(0.43992919 1.1406045e-08 2.0255677e-17)
(0.47990827 -1.6271677e-09 4.3935048e-17)
(0.47990826 -3.3897636e-09 4.3739697e-17)
(0.47990824 1.6124911e-09 1.0179024e-17)
(0.47990828 3.4231471e-09 1.8196923e-17)
)
;

boundaryField
{
    movingWall
    {
        type            fixedValue;
        value           uniform (0.5 0 0);
    }
    CPLReceiveMD
    {
        type            fixedValue;
        value           uniform (-0.00084941896 0 0);
    }
    streamwiseIn
    {
        type            cyclic;
    }
    streamwiseOut
    {
        type            cyclic;
    }
    front
    {
        type            cyclic;
    }
    back
    {
        type            cyclic;
    }
    procBoundary1to0
    {
        type            processor;
        value           nonuniform List<vector> 
240
(
(-0.0068241522 6.4672104e-10 3.770591e-10)
(-0.0068241629 7.3663989e-10 1.3469139e-10)
(-0.0068241625 -7.2542735e-10 2.5613268e-11)
(-0.0068241536 -7.9382135e-10 1.4422196e-10)
(-0.00065055532 1.9317814e-09 -2.7566387e-10)
(-0.00065057575 2.1606306e-09 3.0052484e-11)
(-0.0006505744 -2.0111237e-09 -4.3174491e-11)
(-0.00065055873 -2.2450069e-09 4.05146e-11)
(0.00062649864 3.3477892e-09 -2.7110431e-10)
(0.00062648453 3.8648367e-09 2.0967561e-12)
(0.00062648552 -3.5308918e-09 -5.9008236e-11)
(0.0006264956 -4.0019596e-09 1.2248911e-11)
(0.00072844614 4.1705427e-09 -2.7166977e-10)
(0.00072843845 4.812025e-09 -1.7337864e-11)
(0.00072843952 -4.4377569e-09 -6.1666149e-11)
(0.00072844385 -5.0651888e-09 -7.6652578e-12)
(0.00075944899 3.8284106e-09 -2.4405287e-10)
(0.00075945209 4.6002182e-09 -3.084508e-11)
(0.00075945301 -4.217497e-09 -6.0621743e-11)
(0.00075944761 -4.9560348e-09 -2.2522981e-11)
(0.00074861672 2.7542258e-09 -2.0062656e-10)
(0.00074862215 3.508262e-09 -3.4440921e-11)
(0.00074862278 -3.2559545e-09 -5.5590617e-11)
(0.00074861659 -3.9679663e-09 -2.846964e-11)
(0.00070266856 1.8575927e-09 -1.531589e-10)
(0.00070267346 2.4948327e-09 -3.2170989e-11)
(0.00070267395 -2.4691753e-09 -4.7919636e-11)
(0.00070266883 -3.0593873e-09 -2.7774029e-11)
(0.00066135259 1.1734159e-09 -1.1107372e-10)
(0.00066135614 1.6815926e-09 -2.7422821e-11)
(0.00066135651 -1.8827829e-09 -3.9744899e-11)
(0.000661353 -2.3472198e-09 -2.4209678e-11)
(0.00064180303 7.6229061e-10 -7.8534666e-11)
(0.0006418045 1.1456584e-09 -2.2567185e-11)
(0.00064180476 -1.5532672e-09 -3.2309678e-11)
(0.0006418035 -1.900069e-09 -2.0284704e-11)
(0.00063574412 6.743573e-10 -5.5430533e-11)
(0.00063574344 9.4911356e-10 -1.8558134e-11)
(0.0006357436 -1.5305694e-09 -2.6065766e-11)
(0.00063574452 -1.7770984e-09 -1.6952114e-11)
(0.00062738341 8.3754809e-10 -3.9495006e-11)
(0.0006273813 1.0346493e-09 -1.5434983e-11)
(0.00062738139 -1.7420534e-09 -2.1071417e-11)
(0.00062738365 -1.9197534e-09 -1.4304327e-11)
(0.00060589681 1.1142216e-09 -2.885832e-11)
(0.00060589425 1.2685754e-09 -1.2990358e-11)
(0.0006058943 -2.050042e-09 -1.7081981e-11)
(0.00060589687 -2.194084e-09 -1.2180138e-11)
(0.00056855551 1.3877921e-09 -2.1538278e-11)
(0.00056855322 1.5274267e-09 -1.0978417e-11)
(0.00056855325 -2.3390381e-09 -1.385645e-11)
(0.00056855543 -2.4767293e-09 -1.038494e-11)
(0.00051858966 1.6033382e-09 -1.631528e-11)
(0.0005185879 1.7454509e-09 -9.2421526e-12)
(0.00051858791 -2.5552504e-09 -1.1209956e-11)
(0.00051858952 -2.7023383e-09 -8.8001641e-12)
(0.00046181688 1.7653036e-09 -1.2466923e-11)
(0.0004618155 1.918176e-09 -7.707832e-12)
(0.0004618155 -2.7041201e-09 -9.0189648e-12)
(0.00046181673 -2.8670455e-09 -7.3750304e-12)
(0.00040406592 1.9153023e-09 -9.5582978e-12)
(0.00040406455 2.0826546e-09 -6.3506325e-12)
(0.00040406453 -2.8281157e-09 -7.2041207e-12)
(0.00040406577 -3.0086606e-09 -6.0982456e-12)
(0.00034987929 2.1085799e-09 -7.3244004e-12)
(0.0003498775 2.2938064e-09 -5.1656217e-12)
(0.00034987745 -2.9832691e-09 -5.7088708e-12)
(0.00034987915 -3.1829865e-09 -4.9732901e-12)
(0.00030224255 2.3980317e-09 -5.59713e-12)
(0.00030223992 2.6072169e-09 -4.1502834e-12)
(0.00030223983 -3.2232875e-09 -4.4892385e-12)
(0.00030224239 -3.4466083e-09 -4.0032834e-12)
(0.00026290479 2.8270911e-09 -4.2611206e-12)
(0.000262901 3.0707769e-09 -3.2980036e-12)
(0.00026290086 -3.5924972e-09 -3.5061012e-12)
(0.00026290459 -3.848529e-09 -3.1850652e-12)
(0.00023293032 3.4290999e-09 -3.2312708e-12)
(0.0002329251 3.7232849e-09 -2.5962291e-12)
(0.00023292488 -4.12526e-09 -2.7231562e-12)
(0.00023293005 -4.4287678e-09 -2.5085793e-12)
(0.00021326592 4.230044e-09 -2.441889e-12)
(0.00021325905 4.5969639e-09 -2.0281347e-12)
(0.00021325874 -4.8487055e-09 -2.1068354e-12)
(0.00021326554 -5.22086e-09 -1.9589036e-12)
(0.00020523529 5.252127e-09 -1.8398054e-12)
(0.00020522656 5.7212583e-09 -1.5747949e-12)
(0.00020522614 -5.786275e-09 -1.6256691e-12)
(0.00020523476 -6.2556246e-09 -1.5187586e-12)
(0.0002109546 6.5166447e-09 -1.3834491e-12)
(0.00021094381 7.1262129e-09 -1.2168237e-12)
(0.00021094325 -6.960671e-09 -1.2456642e-12)
(0.00021095388 -7.5645301e-09 -1.1701052e-12)
(0.00023370522 8.0454913e-09 -1.0387505e-12)
(0.00023369216 8.8446571e-09 -9.3629197e-13)
(0.00023369141 -8.3951455e-09 -9.4429261e-13)
(0.00023370425 -9.1818371e-09 -8.9668188e-13)
(0.00027831316 9.8611601e-09 -7.7926583e-13)
(0.0002782976 1.0912988e-08 -7.1619981e-13)
(0.00027829662 -1.0113459e-08 -7.1329403e-13)
(0.00027831188 -1.1145332e-08 -6.8419358e-13)
(0.00035158276 1.1985398e-08 -5.8445613e-13)
(0.00035156448 1.3370549e-08 -5.442616e-13)
(0.00035156319 -1.2138709e-08 -5.3810888e-13)
(0.00035158107 -1.349576e-08 -5.2033482e-13)
(0.00046282333 1.4436761e-08 -4.3844417e-13)
(0.00046280213 1.6257971e-08 -4.1183216e-13)
(0.00046280045 -1.449077e-08 -4.0568122e-13)
(0.00046282113 -1.6275158e-08 -3.9470418e-13)
(0.00062449691 1.7227321e-08 -3.2909812e-13)
(0.00062447264 1.9614695e-08 -3.1098227e-13)
(0.00062447047 -1.7182967e-08 -3.0578904e-13)
(0.00062449407 -1.9524315e-08 -2.9885279e-13)
(0.00085300518 2.0358715e-08 -2.4719694e-13)
(0.00085297779 2.3475668e-08 -2.3453722e-13)
(0.000852975 -2.0218112e-08 -2.3050317e-13)
(0.00085300156 -2.3279484e-08 -2.2589345e-13)
(0.001169624 2.3817735e-08 -1.8579602e-13)
(0.0011695935 2.7867412e-08 -1.7671473e-13)
(0.0011695899 -2.3584101e-08 -1.7377306e-13)
(0.0011696194 -2.7568468e-08 -1.7048089e-13)
(0.0016015839 2.7571712e-08 -1.3972231e-13)
(0.0016015505 3.280355e-08 -1.3302339e-13)
(0.001601546 -2.7249285e-08 -1.3101585e-13)
(0.0016015781 -3.240615e-08 -1.2848107e-13)
(0.0021832852 3.1563955e-08 -1.0511335e-13)
(0.0021832494 3.8279879e-08 -1.0003621e-13)
(0.0021832437 -3.1157909e-08 -9.8776615e-14)
(0.0021832781 -3.7789566e-08 -9.6696547e-14)
(0.002957622 3.5709648e-08 -7.9095344e-14)
(0.0029575844 4.4269116e-08 -7.5147969e-14)
(0.0029575772 -3.5226006e-08 -7.4457713e-14)
(0.0029576133 -4.3692641e-08 -7.2674478e-14)
(0.0039773745 3.9892697e-08 -5.9511657e-14)
(0.003977336 5.0715509e-08 -5.638702e-14)
(0.0039773272 -3.9338247e-08 -5.6107365e-14)
(0.0039773641 -5.0060801e-08 -5.4543432e-14)
(0.0053066131 4.396414e-08 -4.4769181e-14)
(0.005306575 5.7529616e-08 -4.2257638e-14)
(0.0053065642 -4.3346343e-08 -4.2258107e-14)
(0.0053066008 -5.6805722e-08 -4.0876919e-14)
(0.0070220347 4.7742806e-08 -3.3662193e-14)
(0.0070219984 6.4583602e-08 -3.1627381e-14)
(0.0070219854 -4.7069698e-08 -3.1806262e-14)
(0.0070220204 -6.3800615e-08 -3.058982e-14)
(0.0092141344 5.1018934e-08 -2.5293932e-14)
(0.0092141018 7.1707569e-08 -2.3638819e-14)
(0.0092140864 -5.0299021e-08 -2.3919743e-14)
(0.0092141182 -7.087651e-08 -2.2858094e-14)
(0.011988096 5.3561409e-08 -1.8990438e-14)
(0.011988069 7.8687475e-08 -1.7643145e-14)
(0.011988051 -5.2803552e-08 -1.7971607e-14)
(0.011988078 -7.7820136e-08 -1.7055606e-14)
(0.015464267 5.5129085e-08 -1.4243947e-14)
(0.015464249 8.5265341e-08 -1.3149085e-14)
(0.015464228 -5.4342361e-08 -1.348797e-14)
(0.015464249 -8.437407e-08 -1.2707606e-14)
(0.019778079 5.5486374e-08 -1.0672263e-14)
(0.019778072 9.1142513e-08 -9.7851968e-15)
(0.019778048 -5.4679917e-08 -1.0110562e-14)
(0.01977806 -9.0239935e-08 -9.4541929e-15)
(0.025079259 5.4422796e-08 -7.9862833e-15)
(0.025079266 9.5986786e-08 -7.2709691e-15)
(0.025079239 -5.3605615e-08 -7.5685696e-15)
(0.025079241 -9.5085468e-08 -7.0236734e-15)
(0.031530217 5.1775627e-08 -5.9686099e-15)
(0.031530239 9.9444229e-08 -5.3942982e-15)
(0.03153021 -5.0956392e-08 -5.65725e-15)
(0.031530201 -9.855627e-08 -5.2101505e-15)
(0.039303472 4.7454071e-08 -4.4539408e-15)
(0.039303514 1.0115641e-07 -3.9966787e-15)
(0.039303482 -4.6640889e-08 -4.2218668e-15)
(0.039303461 -1.00293e-07 -3.8579311e-15)
(0.04857807 4.1462671e-08 -3.3190027e-15)
(0.048578132 1.0078353e-07 -2.9562061e-15)
(0.048578099 -4.0662852e-08 -3.1443041e-15)
(0.048578066 -9.9954493e-08 -2.8522954e-15)