/*--------------------------------*- C++ -*----------------------------------*\
| =========                 |                                                 |
| \\      /  F ield         | OpenFOAM: The Open Source CFD Toolbox           |
|  \\    /   O peration     | Version:  3.0.1                                 |
|   \\  /    A nd           | Web:      www.OpenFOAM.org                      |
|    \\/     M anipulation  |                                                 |
\*---------------------------------------------------------------------------*/
FoamFile
{
    version     2.0;
    format      ascii;
    class       surfaceScalarField;
    location    "125";
    object      phi;
}
// * * * * * * * * * * * * * * * * * * * * * * * * * * * * * * * * * * * * * //

dimensions      [0 3 -1 0 0 0 0];

internalField   nonuniform List<scalar> 
1072
(
-0.17074802
4.6748368e-08
5.2626183e-09
-0.17074808
2.9048973e-08
4.7113066e-10
-0.17074803
-6.2650318e-08
-7.048409e-10
-5.4095199e-08
-3.0561117e-09
-0.053354279
-5.1436687e-08
1.1572889e-08
-0.053354236
-2.3549952e-08
1.8009167e-09
-0.053354302
1.2722238e-08
3.5108518e-11
-2.0049539e-08
-1.8161143e-09
-0.065751514
-2.4853678e-07
8.4931527e-09
-0.065751362
-1.8498375e-07
1.6128332e-09
-0.065751529
1.9609979e-07
6.2546548e-10
1.2562484e-07
-1.4198221e-09
-0.085353863
-5.4439851e-07
5.9756117e-09
-0.0853536
-4.6373977e-07
1.4683959e-09
-0.085353867
4.8204777e-07
8.0780901e-10
3.9263351e-07
-1.3949794e-09
-0.09295421
-8.2678851e-07
4.0778722e-09
-0.092953932
-7.5379483e-07
1.1548073e-09
-0.092954199
7.5720815e-07
1.0591472e-09
6.7371896e-07
-1.2556137e-09
-0.09011177
-9.6363075e-07
2.9395397e-09
-0.090111613
-9.1694576e-07
1.026341e-09
-0.090111745
8.8924953e-07
1.2580747e-09
8.3052169e-07
-1.089914e-09
-0.080440179
-9.429575e-07
2.2104566e-09
-0.080440172
-9.2568833e-07
7.5173955e-10
-0.080440154
8.6677704e-07
1.2008819e-09
8.3627763e-07
-9.326715e-10
-0.067155207
-8.0090744e-07
1.6235174e-09
-0.067155323
-8.0824442e-07
5.2912498e-10
-0.067155188
7.2582745e-07
1.0671369e-09
7.191333e-07
-7.8066876e-10
-0.052791158
-5.8537624e-07
1.3368429e-09
-0.052791353
-6.0933398e-07
3.6295114e-10
-0.052791145
5.1348253e-07
9.209614e-10
5.2331006e-07
-6.4363517e-10
-0.039098816
-3.4132811e-07
1.0730759e-09
-0.039099047
-3.7368279e-07
2.4333311e-10
-0.03909881
2.7418434e-07
7.7359679e-10
2.9286328e-07
-5.3237347e-10
-0.027077853
-1.0382879e-07
9.2830325e-10
-0.027078085
-1.3748692e-07
1.6464556e-10
-0.027077854
4.2350204e-08
6.3498545e-10
6.3281517e-08
-4.5051602e-10
-0.017123898
1.0522943e-07
8.4034424e-10
-0.017124107
7.5441849e-08
1.210809e-10
-0.017123903
-1.6061855e-07
5.1169263e-10
-1.4225379e-07
-3.9515947e-10
-0.0092180155
2.7634543e-07
7.7863756e-10
-0.0092181899
2.5361546e-07
1.0297272e-10
-0.009218023
-3.2555642e-07
4.0630563e-10
-3.1274302e-07
-3.6013461e-10
-0.0030998793
4.0940264e-07
7.2902244e-10
-0.0031000177
3.9532509e-07
1.0055246e-10
-0.003099888
-4.5254541e-07
3.1875172e-10
-4.4681182e-07
-3.3871784e-10
0.0016027586
5.1007312e-07
6.8428379e-10
0.0016026516
5.0523317e-07
1.0589254e-10
0.0016027494
-5.4734897e-07
2.4754434e-10
-5.4931931e-07
-3.2526123e-10
0.0052917162
5.866956e-07
6.4169221e-10
0.0052916328
5.9124115e-07
1.1350988e-10
0.0052917069
-6.1832395e-07
1.9067754e-10
-6.2825679e-07
-3.1584285e-10
0.0083545349
6.4805601e-07
6.012025e-10
0.0083544663
6.621626e-07
1.202513e-10
0.0083545254
-6.742312e-07
1.4528967e-10
-6.9245473e-07
-3.0826104e-10
0.01114733
7.020667e-07
5.6407626e-10
0.011147267
7.262744e-07
1.2453021e-10
0.011147319
-7.2293937e-07
1.0837572e-10
-7.5016378e-07
-3.0179082e-10
0.013993936
7.5513971e-07
5.3198192e-10
0.013993874
7.9058184e-07
1.2610889e-10
0.013993925
-7.7081632e-07
7.7594708e-11
-8.0834392e-07
-2.9672974e-10
0.017193858
8.120103e-07
5.064695e-10
0.017193789
8.605685e-07
1.2555491e-10
0.017193844
-8.2256368e-07
5.1094866e-11
-8.724318e-07
-2.9370544e-10
0.021034255
8.7580828e-07
4.8863744e-10
0.021034177
9.402254e-07
1.2381913e-10
0.021034239
-8.812934e-07
2.7545093e-11
-9.4638056e-07
-2.9347735e-10
0.025803284
9.4823739e-07
4.7906075e-10
0.025803193
1.0322112e-06
1.2189845e-10
0.025803264
-9.4870819e-07
6.0615215e-12
-1.0328255e-06
-2.9673269e-10
0.03180336
1.0297798e-06
4.7781905e-10
0.031803255
1.1380508e-06
1.2064729e-10
0.031803335
-1.0253035e-06
-1.439742e-11
-1.1332837e-06
-3.0407316e-10
0.039363702
1.119884e-06
4.8455468e-10
0.039363583
1.2583209e-06
1.2076006e-10
0.039363671
-1.1105538e-06
-3.4386098e-11
-1.2483386e-06
-3.1586394e-10
0.048851883
1.2171204e-06
4.9857743e-10
0.048851749
1.3927976e-06
1.2445691e-10
0.048851845
-1.2030641e-06
-5.408184e-11
-1.3777879e-06
-3.3221928e-10
0.060684304
1.3193025e-06
5.1894309e-10
0.060684157
1.5405726e-06
1.2845621e-10
0.060684257
-1.300689e-06
-7.3490491e-11
-1.5207478e-06
-3.5302675e-10
0.075335573
1.4235827e-06
5.4450738e-10
0.075335414
1.7001108e-06
1.3500321e-10
0.075335517
-1.4006236e-06
-9.2790285e-11
-1.675717e-06
-3.7796545e-10
0.093346765
1.5265308e-06
5.7398235e-10
0.093346596
1.8692869e-06
1.4410294e-10
0.093346697
-1.4994812e-06
-1.1173777e-10
-1.8406066e-06
-4.0652036e-10
0.11533248
1.624211e-06
6.0597218e-10
0.1153323
2.0453942e-06
1.5562371e-10
0.1153324
-1.5933667e-06
-1.3021341e-10
-2.0127465e-06
-4.3799152e-10
0.1419866
1.7122673e-06
6.389964e-10
0.14198642
2.225137e-06
1.6938293e-10
0.1419865
-1.6779608e-06
-1.4794353e-10
-2.1888755e-06
-4.7150316e-10
0.17408654
1.78603e-06
6.715041e-10
0.17408636
2.4046188e-06
1.8512051e-10
0.17408643
-1.7486254e-06
-1.6456483e-10
-2.3651284e-06
-5.0601199e-10
0.21249575
1.8406521e-06
7.0188893e-10
0.21249557
2.5793346e-06
2.0252363e-10
0.21249562
-1.800539e-06
-1.7963259e-10
-2.5370266e-06
-5.4032152e-10
0.25816416
1.8712827e-06
7.2850531e-10
0.258164
2.7441781e-06
2.212301e-10
0.25816403
-1.8288697e-06
-1.9263506e-10
-2.6994848e-06
-5.7308833e-10
0.31212631
1.8732789e-06
7.4969018e-10
0.31212616
2.8934717e-06
2.4081735e-10
0.31212616
-1.8289866e-06
-2.030132e-10
-2.8468403e-06
-6.0283944e-10
0.37549668
1.8424556e-06
7.6379264e-10
0.37549655
3.0210305e-06
2.6079431e-10
0.37549652
-1.79671e-06
-2.1018568e-10
-2.9729164e-06
-6.2799548e-10
0.44946212
1.7753669e-06
7.6921251e-10
0.44946202
3.1202673e-06
2.8059282e-10
0.44946195
-1.7285923e-06
-2.1357867e-10
-3.0711277e-06
-6.4690016e-10
0.53527092
1.6696068e-06
7.6444861e-10
0.53527085
3.18435e-06
2.9956012e-10
0.53527075
-1.622219e-06
-2.126598e-10
-3.1346367e-06
-6.5786183e-10
0.63421848
1.5241122e-06
7.4815575e-10
0.63421846
3.2064163e-06
3.16939e-10
0.63421831
-1.4765121e-06
-2.0697504e-10
-3.1565692e-06
-6.5918618e-10
0.74762935
1.3394472e-06
7.192091e-10
0.74762937
3.1798548e-06
3.3188911e-10
0.74762919
-1.2920145e-06
-1.9618752e-10
-3.130295e-06
-6.4924038e-10
0.87683573
1.1180401e-06
6.7677346e-10
0.87683581
3.0986539e-06
3.4348401e-10
0.87683559
-1.071128e-06
-1.8011657e-10
-3.0497774e-06
-6.26517e-10
1.0231527
8.6434585e-07
6.2037403e-10
1.0231528
2.9578195e-06
3.507309e-10
1.0231525
-8.1827577e-07
-1.5877475e-10
-2.9099908e-06
-5.8970046e-10
1.18785
5.8490162e-07
5.4996401e-10
1.1878502
2.7538529e-06
3.5259591e-10
1.1878499
-5.3995934e-07
-1.324012e-10
-2.7074002e-06
-5.3774374e-10
1.372122
2.8824747e-07
4.6598412e-10
1.3721223
2.4852786e-06
3.4804067e-10
1.372122
-2.4468038e-07
-1.01489e-10
-2.4404891e-06
-4.6994957e-10
1.5770548
-1.5310653e-08
3.6940882e-10
1.5770551
2.1531951e-06
3.3607013e-10
1.5770548
5.7294579e-08
-6.680635e-11
-2.1103123e-06
-3.8605378e-10
1.8035927
-3.1410958e-07
2.6177226e-10
1.8035931
1.7618216e-06
3.157906e-10
1.8035928
3.5434075e-07
-2.9405429e-11
-1.7210441e-06
-2.8630745e-10
2.052505
-5.9570872e-07
1.4516803e-10
2.0525054
1.3189948e-06
2.8647718e-10
2.0525051
6.3405231e-07
9.3829776e-12
-1.280478e-06
-1.7155317e-10
2.3243521
-8.4762261e-07
2.2218036e-11
2.3243526
8.3656725e-07
2.4764803e-10
2.3243523
8.8397186e-07
4.7966605e-11
-8.0042778e-07
-4.3286694e-11
2.6194557
-1.0581668e-06
-1.0400491e-10
2.6194562
3.3064678e-07
1.9914277e-10
2.619456
1.0924331e-06
8.4536783e-11
-2.9696976e-07
9.6294428e-11
2.9378704
-1.2173552e-06
-2.3005736e-10
2.9378709
-1.7839182e-07
1.4120095e-10
2.9378708
1.2494551e-06
1.171062e-10
2.0954183e-07
2.4425386e-10
3.2793611
-1.3177661e-06
-3.5231589e-10
3.2793616
-6.6619986e-07
7.4535434e-11
3.2793615
1.3476056e-06
1.4362598e-10
6.9476554e-07
3.9695537e-10
3.6433846
-1.3552768e-06
-4.6713879e-10
3.643385
-1.1051438e-06
3.8147064e-13
3.643385
1.382735e-06
1.6207391e-10
1.1310607e-06
5.5009828e-10
4.0290787
-1.3295638e-06
-5.710945e-10
4.029079
-1.4655068e-06
-7.9457736e-11
4.029079
1.3544782e-06
1.7060124e-10
1.4886907e-06
6.9881714e-10
4.4352579
-1.2442746e-06
-6.6120454e-10
4.4352582
-1.7173579e-06
-1.6264601e-10
4.4352583
1.266432e-06
1.676966e-10
1.7376972e-06
8.3783012e-10
4.8604178
-1.1068216e-06
-7.3519088e-10
4.860418
-1.8333169e-06
-2.4639593e-10
4.8604181
1.1259612e-06
1.523702e-10
1.8506772e-06
9.6164337e-10
5.3027465
-9.2783901e-07
-7.9168871e-10
5.3027465
-1.7925731e-06
-3.2770248e-10
5.3027467
9.436732e-07
1.2435819e-10
1.8068207e-06
1.0648258e-09
5.7601453
-7.2050899e-07
-8.3034803e-10
5.760145
-1.5867229e-06
-4.0374703e-10
5.7601453
7.3276857e-07
8.4418014e-11
1.5977755e-06
1.1422632e-09
6.2302567
-5.0020141e-07
-8.5187571e-10
6.2302563
-1.228178e-06
-4.7218916e-10
6.2302566
5.0871199e-07
3.4931598e-11
1.2360878e-06
1.1892775e-09
6.7105006
-2.8514454e-07
-8.578441e-10
6.7105001
-7.6180514e-07
-5.2945376e-10
6.7105003
2.8994985e-07
-2.1311083e-11
7.6686984e-07
1.1999414e-09
7.1981158
-1.0046281e-07
-8.5396288e-10
7.1981153
-2.8415888e-07
-5.7382501e-10
7.1981155
1.0196412e-07
-7.5489333e-11
2.8698923e-07
1.1737397e-09
7.6902083
-7.5554595e-10
7.690208
-5.4942208e-10
7.6902081
-9.9186804e-11
9.9349199e-10
-0.17074805
3.4920169e-08
-0.1707481
2.1622975e-08
-0.17074806
-4.6147465e-08
-4.3524588e-08
-0.05335436
-6.6228698e-08
-0.053354293
-3.8598897e-08
-0.053354386
3.9213393e-08
5.262227e-09
-0.065751547
-2.5257426e-07
-0.065751387
-1.9151895e-07
-0.06575156
2.1076173e-07
1.4682242e-07
-0.085353882
-5.52596e-07
-0.085353604
-4.7146969e-07
-0.085353886
4.9507513e-07
4.1542808e-07
-0.092954189
-8.3385106e-07
-0.092953904
-7.5904649e-07
-0.092954176
7.6264837e-07
6.9203785e-07
-0.090111719
-9.6791866e-07
-0.090111561
-9.1778977e-07
-0.090111694
8.8702342e-07
8.4196263e-07
-0.080440125
-9.4552031e-07
-0.080440119
-9.2352217e-07
-0.0804401
8.59403e-07
8.4192079e-07
-0.067155163
-8.0299183e-07
-0.067155279
-8.0469487e-07
-0.067155144
7.1566611e-07
7.2064978e-07
-0.052791127
-5.875031e-07
-0.052791322
-6.0556939e-07
-0.052791115
5.0230913e-07
5.2210903e-07
-0.039098798
-3.4388891e-07
-0.039099028
-3.7048178e-07
-0.039098793
2.6319896e-07
2.9001185e-07
-0.027077847
-1.0693698e-07
-0.027078077
-1.3530429e-07
-0.027077848
3.2273582e-08
5.9539004e-08
-0.017123899
1.0164444e-07
-0.017124106
7.6441985e-08
-0.017123905
-1.6944663e-07
-1.4639866e-07
-0.009218022
2.7246143e-07
-0.0092181944
2.5349379e-07
-0.0092180301
-3.3306841e-07
-3.1701912e-07
-0.0030998886
4.0543746e-07
-0.0031000249
3.9428716e-07
-0.0030998978
-4.5884052e-07
-4.5110012e-07
0.0016027482
5.0623163e-07
0.0016026431
5.0355347e-07
0.0016027387
-5.526067e-07
-5.5359054e-07
0.0052917058
5.8313815e-07
0.005291624
5.892048e-07
0.0052916962
-6.227434e-07
-6.3252359e-07
0.0083545248
6.4488714e-07
0.0083544577
6.600286e-07
0.008354515
-6.7799759e-07
-6.967415e-07
0.01114732
6.9933816e-07
0.011147259
7.2425671e-07
0.011147309
-7.2620975e-07
-7.5449209e-07
0.013993927
7.5286097e-07
0.013993866
7.8884438e-07
0.013993915
-7.7371579e-07
-8.1272845e-07
0.017193848
8.1016136e-07
0.017193781
8.592284e-07
0.017193834
-8.2518716e-07
-8.7688101e-07
0.021034245
8.7435111e-07
0.021034168
9.3936032e-07
0.021034228
-8.8370935e-07
-9.5089907e-07
0.025803273
9.4712449e-07
0.025803183
1.0318677e-06
0.025803253
-9.5096266e-07
-1.0374161e-06
0.031803348
1.0289599e-06
0.031803244
1.1382516e-06
0.031803323
-1.0274257e-06
-1.137949e-06
0.039363689
1.1193052e-06
0.039363571
1.2590713e-06
0.039363658
-1.1125591e-06
-1.2530815e-06
0.048851868
1.2167318e-06
0.048851735
1.394095e-06
0.048851829
-1.2049568e-06
-1.382611e-06
0.060684286
1.3190544e-06
0.06068414
1.5423979e-06
0.060684239
-1.3024633e-06
-1.5256528e-06
0.075335553
1.423426e-06
0.075335396
1.7024371e-06
0.075335497
-1.4022661e-06
-1.680703e-06
0.093346742
1.5264169e-06
0.093346574
1.87208e-06
0.093346674
-1.5009713e-06
-1.8456688e-06
0.11533245
1.6240911e-06
0.11533228
2.0486119e-06
0.11533237
-1.5946784e-06
-2.0178742e-06
0.14198657
1.7120923e-06
0.14198639
2.2287285e-06
0.14198648
-1.6790641e-06
-2.1940509e-06
0.17408651
1.7857509e-06
0.17408633
2.4085237e-06
0.1740864
-1.7494876e-06
-2.3703247e-06
0.21249571
1.8402207e-06
0.21249554
2.5834821e-06
0.21249559
-1.8011267e-06
-2.5422071e-06
0.25816413
1.8706535e-06
0.25816396
2.7484862e-06
0.25816399
-1.8291507e-06
-2.7046012e-06
0.31212627
1.8724106e-06
0.31212612
2.8978465e-06
0.31212612
-1.8289322e-06
-2.8518322e-06
0.37549664
1.8413145e-06
0.37549651
3.0253661e-06
0.37549648
-1.7962976e-06
-2.9777106e-06
0.44946207
1.7739295e-06
0.44946197
3.1244466e-06
0.4494619
-1.727808e-06
-3.075638e-06
0.53527087
1.6678626e-06
0.53527081
3.1882452e-06
0.5352707
-1.6210605e-06
-3.1387643e-06
0.63421843
1.5220677e-06
0.63421841
3.2098909e-06
0.63421826
-1.4749917e-06
-3.1602036e-06
0.7476293
1.3371277e-06
0.74762932
3.1827659e-06
0.74762914
-1.2901611e-06
-3.1333156e-06
0.87683569
1.1154927e-06
0.87683577
3.1008559e-06
0.87683554
-1.0689894e-06
-3.0520566e-06
1.0231526
8.6164028e-07
1.0231528
2.9591681e-06
1.0231525
-8.1591941e-07
-2.9113973e-06
1.18785
5.8212981e-07
1.1878502
2.754211e-06
1.1878499
-5.3747217e-07
-2.7078045e-06
1.372122
2.8552191e-07
1.3721222
2.4845224e-06
1.3721219
-2.4216733e-07
-2.4397697e-06
1.5770547
-1.7860904e-08
1.5770551
2.1512221e-06
1.5770548
5.9713975e-08
-2.1083638e-06
1.8035927
-3.1634509e-07
1.8035931
1.7585586e-06
1.8035928
3.565374e-07
-1.7177862e-06
2.0525049
-5.9748809e-07
2.0525054
1.314407e-06
2.0525051
6.3589477e-07
-1.2758661e-06
2.3243521
-8.4881311e-07
2.3243525
8.3066773e-07
2.3243523
8.8533504e-07
-7.9446419e-07
2.6194556
-1.0586569e-06
2.6194562
3.2350583e-07
2.6194559
1.0932086e-06
-2.8971563e-07
2.9378704
-1.2170684e-06
2.9378709
-1.8663792e-07
2.9378708
1.2495624e-06
2.1795492e-07
3.2793611
-1.3166747e-06
3.2793616
-6.7534101e-07
3.2793615
1.3470035e-06
7.0412498e-07
3.6433846
-1.3534148e-06
3.6433851
-1.1148902e-06
3.643385
1.3814322e-06
1.1410647e-06
4.0290787
-1.3270366e-06
4.029079
-1.4754862e-06
4.0290791
1.3525416e-06
1.4989438e-06
4.435258
-1.2412625e-06
4.4352582
-1.7271181e-06
4.4352583
1.2639914e-06
1.7477132e-06
4.8604179
-1.103574e-06
4.860418
-1.8423385e-06
4.8604181
1.1232075e-06
1.8598921e-06
5.3027466
-9.2465489e-07
5.3027465
-1.8003017e-06
5.3027467
9.4084992e-07
1.8146243e-06
5.7601453
-7.1769744e-07
5.7601451
-1.5926399e-06
5.7601453
7.301564e-07
1.6035738e-06
6.2302568
-4.9801933e-07
6.2302564
-1.2319535e-06
6.2302566
5.0661554e-07
1.2394261e-06
6.7105006
-2.837179e-07
6.7105001
-7.6363352e-07
6.7105003
2.8869312e-07
7.6770353e-07
7.1981158
-9.9755821e-08
7.1981154
-2.8495517e-07
7.1981155
1.0188166e-07
2.8593613e-07
7.6902083
7.690208
7.6902081
)
;

boundaryField
{
    movingWall
    {
        type            calculated;
        value           uniform 0;
    }
    CPLReceiveMD
    {
        type            calculated;
        value           uniform 0;
    }
    streamwiseIn
    {
        type            cyclic;
        value           nonuniform List<scalar> 
120
(
0.17074799
0.053354355
0.06575169
0.085354136
0.092954481
0.090111905
0.080440164
0.067155074
0.052790952
0.039098581
0.027077625
0.017123697
0.0092178512
0.0030997522
-0.001602854
-0.0052917882
-0.0083545921
-0.01114738
-0.013993986
-0.017193911
-0.021034315
-0.025803353
-0.031803438
-0.039363789
-0.048851977
-0.060684403
-0.075335675
-0.093346865
-0.11533257
-0.14198668
-0.17408661
-0.2124958
-0.25816419
-0.31212631
-0.37549665
-0.44946205
-0.53527081
-0.63421833
-0.74762916
-0.87683551
-1.0231524
-1.1878497
-1.3721217
-1.5770545
-1.8035924
-2.0525047
-2.3243518
-2.6194554
-2.9378703
-3.279361
-3.6433846
-4.0290787
-4.435258
-4.860418
-5.3027467
-5.7601455
-6.2302569
-6.7105008
-7.198116
-7.6902084
0.17074801
0.053354454
0.065751717
0.085354156
0.092954451
0.090111842
0.080440099
0.067155021
0.052790914
0.039098558
0.027077614
0.017123695
0.0092178555
0.0030997596
-0.0016028453
-0.0052917792
-0.0083545833
-0.011147371
-0.013993978
-0.017193903
-0.021034306
-0.025803343
-0.031803427
-0.039363777
-0.048851963
-0.060684386
-0.075335656
-0.093346843
-0.11533255
-0.14198665
-0.17408658
-0.21249576
-0.25816416
-0.31212627
-0.37549661
-0.449462
-0.53527076
-0.63421828
-0.74762911
-0.87683546
-1.0231524
-1.1878497
-1.3721217
-1.5770544
-1.8035924
-2.0525046
-2.3243518
-2.6194554
-2.9378703
-3.279361
-3.6433846
-4.0290787
-4.4352581
-4.860418
-5.3027468
-5.7601455
-6.230257
-6.7105008
-7.198116
-7.6902084
)
;
    }
    streamwiseOut
    {
        type            cyclic;
        value           nonuniform List<scalar> 
120
(
-0.17074799
-0.053354355
-0.06575169
-0.085354136
-0.092954481
-0.090111905
-0.080440164
-0.067155074
-0.052790952
-0.039098581
-0.027077625
-0.017123697
-0.0092178512
-0.0030997522
0.001602854
0.0052917882
0.0083545921
0.01114738
0.013993986
0.017193911
0.021034315
0.025803353
0.031803438
0.039363789
0.048851977
0.060684403
0.075335675
0.093346865
0.11533257
0.14198668
0.17408661
0.2124958
0.25816419
0.31212631
0.37549665
0.44946205
0.53527081
0.63421833
0.74762916
0.87683551
1.0231524
1.1878497
1.3721217
1.5770545
1.8035924
2.0525047
2.3243518
2.6194554
2.9378703
3.279361
3.6433846
4.0290787
4.435258
4.860418
5.3027467
5.7601455
6.2302569
6.7105008
7.198116
7.6902084
-0.17074801
-0.053354454
-0.065751717
-0.085354156
-0.092954451
-0.090111842
-0.080440099
-0.067155021
-0.052790914
-0.039098558
-0.027077614
-0.017123695
-0.0092178555
-0.0030997596
0.0016028453
0.0052917792
0.0083545833
0.011147371
0.013993978
0.017193903
0.021034306
0.025803343
0.031803427
0.039363777
0.048851963
0.060684386
0.075335656
0.093346843
0.11533255
0.14198665
0.17408658
0.21249576
0.25816416
0.31212627
0.37549661
0.449462
0.53527076
0.63421828
0.74762911
0.87683546
1.0231524
1.1878497
1.3721217
1.5770544
1.8035924
2.0525046
2.3243518
2.6194554
2.9378703
3.279361
3.6433846
4.0290787
4.4352581
4.860418
5.3027468
5.7601455
6.230257
6.7105008
7.198116
7.6902084
)
;
    }
    front
    {
        type            cyclic;
        value           nonuniform 0();
    }
    back
    {
        type            cyclic;
        value           nonuniform 0();
    }
    procBoundary1to0
    {
        type            processor;
        value           nonuniform List<scalar> 
240
(
5.0168619e-09
9.8621711e-11
-1.8197034e-09
-3.3288958e-09
1.0562824e-08
1.4765472e-09
-1.3016017e-09
-2.0327535e-09
7.4133946e-09
1.3035775e-09
-7.5078831e-10
-1.6056894e-09
4.9341727e-09
1.2122077e-09
-5.0695239e-10
-1.6009497e-09
3.0951414e-09
8.6294524e-10
-2.1022062e-10
-1.4807945e-09
2.087312e-09
7.5711338e-10
6.7000359e-11
-1.3152389e-09
1.3595919e-09
5.0697152e-10
1.4521311e-10
-1.1405434e-09
8.7827627e-10
3.1535278e-10
1.8350154e-10
-9.6048929e-10
6.9080237e-10
1.8538295e-10
2.1507713e-10
-7.9130646e-10
5.8406005e-10
1.0120397e-10
2.2014333e-10
-6.4833536e-10
5.4897378e-10
5.4548901e-11
2.0779092e-10
-5.3789942e-10
5.4735719e-10
3.8379757e-11
1.8625912e-10
-4.583512e-10
5.5597256e-10
4.2636723e-11
1.6145156e-10
-4.0385367e-10
5.6229589e-10
5.7830024e-11
1.3681962e-10
-3.6744562e-10
5.6120239e-10
7.6556915e-11
1.140894e-10
-3.4293077e-10
5.5207903e-10
9.4043406e-11
9.4041063e-11
-3.25703e-10
5.3684168e-10
1.0783362e-10
7.6250784e-11
-3.1286794e-10
5.1848256e-10
1.1698254e-10
5.9750848e-11
-3.0306412e-10
5.0014548e-10
1.2181316e-10
4.3866601e-11
-2.9604834e-10
4.8457206e-10
1.2334699e-10
2.8105816e-11
-2.920152e-10
4.7382546e-10
1.2288898e-10
1.2207338e-11
-2.9139385e-10
4.6922795e-10
1.2170093e-10
-3.9144952e-12
-2.9463018e-10
4.7143229e-10
1.2082992e-10
-2.0767494e-11
-3.0215649e-10
4.8051523e-10
1.2110487e-10
-3.8327346e-11
-3.142278e-10
4.9610769e-10
1.244404e-10
-5.6405046e-11
-3.3088912e-10
5.1750169e-10
1.2839471e-10
-7.4823676e-11
-3.5198788e-10
5.4372337e-10
1.3491783e-10
-9.3543907e-11
-3.7718268e-10
5.7360575e-10
1.4400199e-10
-1.1205076e-10
-4.0595063e-10
6.0583787e-10
1.5551447e-10
-1.3027236e-10
-4.3759155e-10
6.3899784e-10
1.6927203e-10
-1.478671e-10
-4.7123359e-10
6.7157448e-10
1.8501646e-10
-1.64426e-10
-5.0587856e-10
7.0198783e-10
2.0245462e-10
-1.7947429e-10
-5.4027882e-10
7.286095e-10
2.2118327e-10
-1.9248101e-10
-5.7310039e-10
7.4978735e-10
2.4078481e-10
-2.0287516e-10
-6.028819e-10
7.6387715e-10
2.6077118e-10
-2.1006822e-10
-6.2805236e-10
7.6928269e-10
2.8057475e-10
-2.1348227e-10
-6.4696138e-10
7.6450493e-10
2.9953998e-10
-2.1258279e-10
-6.5791689e-10
7.4819973e-10
3.1691883e-10
-2.0691483e-10
-6.592316e-10
7.1924267e-10
3.3187017e-10
-1.961413e-10
-6.492771e-10
6.7679859e-10
3.4346695e-10
-1.8008164e-10
-6.2654615e-10
6.2039251e-10
3.5071603e-10
-1.587487e-10
-5.8972325e-10
5.4997735e-10
3.5258324e-10
-1.3238201e-10
-5.3776128e-10
4.6599366e-10
3.4803005e-10
-1.0147508e-10
-4.6996288e-10
3.6941559e-10
3.3606134e-10
-6.6796432e-11
-3.8606371e-10
2.6177702e-10
3.1578344e-10
-2.9398504e-11
-2.8631477e-10
1.4517138e-10
2.8647141e-10
9.3876223e-12
-1.7155841e-10
2.2220337e-11
2.4764346e-10
4.7969616e-11
-4.3290376e-11
-1.0400117e-10
1.9913916e-10
8.4537306e-11
9.6290687e-11
-2.3005489e-10
1.4119818e-10
1.1710647e-10
2.4425098e-10
-3.5231434e-10
7.4533375e-11
1.4362614e-10
3.9695312e-10
-4.6713783e-10
3.8082331e-13
1.6207393e-10
5.5009654e-10
-5.7109404e-10
-7.9458239e-11
1.7060132e-10
6.9881579e-10
-6.6120448e-10
-1.6264646e-10
1.6769689e-10
8.3782898e-10
-7.3519119e-10
-2.4639636e-10
1.5237078e-10
9.6164256e-10
-7.9168929e-10
-3.2770269e-10
1.2435897e-10
1.0648252e-09
-8.3034867e-10
-4.0374716e-10
8.4418869e-11
1.1422628e-09
-8.518765e-10
-4.7218917e-10
3.4932539e-11
1.1892773e-09
-8.5784528e-10
-5.2945359e-10
-2.1309911e-11
1.1999413e-09
-8.5396419e-10
-5.7382483e-10
-7.5488106e-11
1.1737396e-09
-7.5554704e-10
-5.4942206e-10
-9.9186232e-11
9.934919e-10
)
;
    }
    procBoundary1to0throughback
    {
        type            processorCyclic;
        value           nonuniform List<scalar> 
240
(
8.7440768e-09
9.843802e-09
6.7034666e-09
5.4017971e-09
3.8934148e-09
2.5374511e-09
1.4849173e-09
7.3279323e-10
2.5046974e-10
-1.119904e-10
-3.1944011e-10
-4.3854881e-10
-5.0326056e-10
-5.336555e-10
-5.4177621e-10
-5.3570523e-10
-5.2140212e-10
-5.0356656e-10
-4.8594508e-10
-4.7140412e-10
-4.6194197e-10
-4.5877941e-10
-4.6244373e-10
-4.7293281e-10
-4.898212e-10
-5.1236818e-10
-5.395872e-10
-5.7031268e-10
-6.0324401e-10
-6.3697445e-10
-6.7001018e-10
-7.0078837e-10
-7.2769679e-10
-7.4909782e-10
-7.6335977e-10
-7.6889703e-10
-7.6421931e-10
-7.4798956e-10
-7.1908903e-10
-6.7668699e-10
-6.2031201e-10
-5.4991968e-10
-4.659526e-10
-3.693865e-10
-2.6175655e-10
-1.4515709e-10
-2.2210518e-11
1.0400771e-10
2.30059e-10
3.5231674e-10
4.6713908e-10
5.7109446e-10
6.6120429e-10
7.3519054e-10
7.9168836e-10
8.3034797e-10
8.5187608e-10
8.5784485e-10
8.5396387e-10
7.5554698e-10
-7.5104404e-10
1.7200716e-09
2.3370135e-09
2.7361596e-09
2.8371107e-09
2.6842045e-09
2.3582873e-09
1.9871086e-09
1.6306809e-09
1.3174896e-09
1.0522514e-09
8.2216529e-10
6.2427961e-10
4.5708486e-10
3.1919334e-10
2.0858845e-10
1.2232118e-10
5.7044699e-11
9.0150127e-12
-2.5568367e-11
-5.0236208e-11
-6.8038005e-11
-8.1453093e-11
-9.2579123e-11
-1.0351116e-10
-1.1322468e-10
-1.2401922e-10
-1.3621594e-10
-1.4998248e-10
-1.6535913e-10
-1.8226328e-10
-2.0052604e-10
-2.1983857e-10
-2.3985148e-10
-2.6012634e-10
-2.8013128e-10
-2.9923646e-10
-3.167121e-10
-3.3173008e-10
-3.4337254e-10
-3.5065279e-10
-3.5254115e-10
-3.4800223e-10
-3.3604313e-10
-3.1577163e-10
-2.8646383e-10
-2.4763855e-10
-1.9913604e-10
-1.4119615e-10
-7.4532044e-11
-3.7984939e-13
7.9458888e-11
1.6264705e-10
2.4639689e-10
3.2770332e-10
4.0374781e-10
4.7219007e-10
5.2945471e-10
5.7382588e-10
5.4942304e-10
1.6570784e-09
2.8795411e-09
2.2460399e-09
1.6722458e-09
9.5782856e-10
5.8617786e-10
3.1149722e-10
1.2558494e-10
-5.9350578e-13
-6.2590132e-11
-8.4153015e-11
-8.378157e-11
-7.3681329e-11
-6.0683557e-11
-4.8021882e-11
-3.7136087e-11
-2.7703386e-11
-1.880331e-11
-9.6998604e-12
9.1559978e-14
1.0827621e-11
2.2580473e-11
3.5656254e-11
5.0112239e-11
6.5655938e-11
8.2031365e-11
9.9119066e-11
1.1633449e-10
1.3354343e-10
1.5034987e-10
1.6629945e-10
1.8088008e-10
1.9353019e-10
2.0365405e-10
2.1064342e-10
2.1390486e-10
2.1289163e-10
2.0713935e-10
1.9630363e-10
1.8019829e-10
1.5883202e-10
1.3244112e-10
1.0151664e-10
6.6825379e-11
2.941845e-11
-9.3740771e-12
-4.7960534e-11
-8.4531281e-11
-1.1710243e-10
-1.4362344e-10
-1.6207222e-10
-1.7060015e-10
-1.67696e-10
-1.5237e-10
-1.243582e-10
-8.4418328e-11
-3.4932299e-11
2.1310291e-11
7.5488781e-11
9.9186828e-11
2.3214629e-09
5.7097345e-09
6.2042588e-09
6.1146397e-09
5.5430872e-09
4.7693648e-09
3.9755321e-09
3.2429381e-09
2.6133527e-09
2.0970908e-09
1.6851623e-09
1.3620104e-09
1.1111916e-09
9.1741478e-10
7.6759482e-10
6.5132893e-10
5.6082588e-10
4.9061701e-10
4.3696265e-10
3.9722717e-10
3.6945217e-10
3.5217847e-10
3.443261e-10
3.4493895e-10
3.5312023e-10
3.6798485e-10
3.886262e-10
4.140896e-10
4.4334744e-10
4.7528148e-10
5.0870825e-10
5.4224671e-10
5.7446138e-10
6.0381795e-10
6.2869252e-10
6.4739665e-10
6.5821111e-10
6.5942924e-10
6.4940895e-10
6.266335e-10
5.8978066e-10
5.3779868e-10
4.6998695e-10
3.86079e-10
2.8632428e-10
1.7156422e-10
4.3293703e-11
-9.6288885e-11
-2.4425024e-10
-3.9695309e-10
-5.5009704e-10
-6.9881663e-10
-8.3783015e-10
-9.616438e-10
-1.0648265e-09
-1.142264e-09
-1.1892783e-09
-1.199942e-09
-1.1737398e-09
-9.9349139e-10
)
;
    }
}


// ************************************************************************* //
