/*--------------------------------*- C++ -*----------------------------------*\
| =========                 |                                                 |
| \\      /  F ield         | OpenFOAM: The Open Source CFD Toolbox           |
|  \\    /   O peration     | Version:  3.0.x                                 |
|   \\  /    A nd           | Web:      www.OpenFOAM.org                      |
|    \\/     M anipulation  |                                                 |
\*---------------------------------------------------------------------------*/
FoamFile
{
    version     2.0;
    format      ascii;
    class       volScalarField;
    location    "50";
    object      p;
}
// * * * * * * * * * * * * * * * * * * * * * * * * * * * * * * * * * * * * * //

dimensions      [0 2 -2 0 0 0 0];

internalField   nonuniform List<scalar> 
960
(
5.2508111e-08
5.5919834e-08
-7.472541e-09
5.7521627e-09
5.4486321e-08
6.1765715e-08
-1.1176211e-08
-2.3223565e-09
4.3035686e-08
5.9767685e-08
-1.2786e-08
-5.5265113e-09
3.297062e-08
5.4116142e-08
-1.2545429e-08
-4.1375828e-09
2.9331917e-08
4.8351183e-08
-1.1441291e-08
-5.437246e-10
2.9623854e-08
4.4625504e-08
-9.8240611e-09
2.801241e-09
3.1119852e-08
4.2225414e-08
-6.7623501e-09
6.210786e-09
3.2440663e-08
4.0492461e-08
-2.2774079e-09
9.8057427e-09
3.3157117e-08
3.9059156e-08
3.0264416e-09
1.3444782e-08
3.3280471e-08
3.775724e-08
8.4519084e-09
1.6901674e-08
3.2970492e-08
3.6520215e-08
1.3462397e-08
1.9987482e-08
3.2402208e-08
3.533079e-08
1.7744496e-08
2.259067e-08
3.1714267e-08
3.4193174e-08
2.1181511e-08
2.4675856e-08
3.0998899e-08
3.3117382e-08
2.379677e-08
2.626694e-08
3.0306868e-08
3.2111856e-08
2.5695825e-08
2.7426466e-08
2.9658029e-08
3.1180918e-08
2.7020433e-08
2.8237082e-08
2.90526e-08
3.0324062e-08
2.7917569e-08
2.8787653e-08
2.8488271e-08
2.9536334e-08
2.8521832e-08
2.9164424e-08
2.7958182e-08
2.8808896e-08
2.894806e-08
2.94449e-08
2.7453608e-08
2.812978e-08
2.9289922e-08
2.9701188e-08
2.6962686e-08
2.7483932e-08
2.962227e-08
2.9994234e-08
2.6471892e-08
2.6852305e-08
3.0004541e-08
3.0377261e-08
2.5962687e-08
2.6210915e-08
3.048481e-08
3.0897728e-08
2.5414212e-08
2.5530151e-08
3.1104288e-08
3.1599616e-08
2.4799939e-08
2.4773814e-08
3.1899046e-08
3.2525307e-08
2.4087343e-08
2.3898278e-08
3.2902217e-08
3.3717216e-08
2.3237757e-08
2.2851837e-08
3.4145448e-08
3.5219183e-08
2.2206605e-08
2.1574338e-08
3.5659743e-08
3.7077579e-08
2.0944092e-08
1.9997181e-08
3.7475785e-08
3.9342081e-08
1.9396447e-08
1.8043795e-08
3.962375e-08
4.2066041e-08
1.7508071e-08
1.5630471e-08
4.2132548e-08
4.5306412e-08
1.522368e-08
1.266867e-08
4.5028497e-08
4.91229e-08
1.2492048e-08
9.0672021e-09
4.8333398e-08
5.3577079e-08
9.2702047e-09
4.7357445e-09
5.2062005e-08
5.8730074e-08
5.528382e-09
-4.1070596e-10
5.6218939e-08
6.4639666e-08
1.2554855e-09
-6.4463728e-09
6.0795207e-08
7.1356455e-08
-3.5352485e-09
-1.3428485e-08
6.5764569e-08
7.8919031e-08
-8.8009466e-09
-2.1390029e-08
7.1080182e-08
8.7348212e-08
-1.4464858e-08
-3.0332068e-08
7.667206e-08
9.6640431e-08
-2.0414065e-08
-4.0215938e-08
8.2446023e-08
1.0676054e-07
-2.6500102e-08
-5.0955903e-08
8.8284849e-08
1.1763445e-07
-3.2543413e-08
-6.2413184e-08
9.4052288e-08
1.291423e-07
-3.8342308e-08
-7.4392393e-08
9.9600362e-08
1.4111317e-07
-4.3686591e-08
-8.6641812e-08
1.0477995e-07
1.5332264e-07
-4.83753e-08
-9.8859049e-08
1.0945406e-07
1.6549496e-07
-5.2237031e-08
-1.1070355e-07
1.1351237e-07
1.7731139e-07
-5.5150312e-08
-1.2181704e-07
1.1688503e-07
1.8842653e-07
-5.706075e-08
-1.3185204e-07
1.1955298e-07
1.9849324e-07
-5.7991689e-08
-1.4050716e-07
1.215531e-07
2.0719581e-07
-5.8045606e-08
-1.4756588e-07
1.229767e-07
2.1428932e-07
-5.7392884e-08
-1.5293355e-07
1.2395671e-07
2.1964018e-07
-5.6251291e-08
-1.5666535e-07
1.2465197e-07
2.2326129e-07
-5.4868707e-08
-1.58978e-07
1.2524865e-07
2.2533637e-07
-5.3500066e-08
-1.6024265e-07
1.2594326e-07
2.2622687e-07
-5.2405468e-08
-1.6094539e-07
1.2697167e-07
2.2644916e-07
-5.1839859e-08
-1.615765e-07
1.2862106e-07
2.2657436e-07
-5.2066953e-08
-1.6246027e-07
1.3125002e-07
2.2705229e-07
-5.3667823e-08
-1.6398181e-07
1.3556194e-07
2.2840299e-07
-5.8313871e-08
-1.6797538e-07
1.4333931e-07
2.3252858e-07
-6.7735186e-08
-1.7754488e-07
1.5635546e-07
2.4233795e-07
5.2316465e-08
3.4419179e-08
1.8723355e-09
-8.6615888e-09
5.8665702e-08
4.7161924e-08
-5.2231601e-09
-1.8628867e-08
6.0613862e-08
5.4443889e-08
-9.3820407e-09
-2.3176869e-08
5.8631767e-08
5.5680997e-08
-9.6675824e-09
-2.1525471e-08
5.5814041e-08
5.3604375e-08
-7.9486587e-09
-1.5811779e-08
5.3306592e-08
5.103474e-08
-5.2177575e-09
-1.0087748e-08
5.0759096e-08
4.8236476e-08
-1.2813974e-09
-3.9778581e-09
4.8030077e-08
4.5402543e-08
3.56844e-09
2.1484022e-09
4.5232902e-08
4.2715131e-08
8.7359826e-09
7.8864815e-09
4.2538259e-08
4.0293289e-08
1.3663802e-08
1.294845e-08
4.0071009e-08
3.8178592e-08
1.7981788e-08
1.7189003e-08
3.7891836e-08
3.6360694e-08
2.1514745e-08
2.0585693e-08
3.6009695e-08
3.4807227e-08
2.4239023e-08
2.3199742e-08
3.4400838e-08
3.3474537e-08
2.6228274e-08
2.5139268e-08
3.3026912e-08
3.231817e-08
2.7606286e-08
2.6531266e-08
3.184784e-08
3.1300971e-08
2.8512769e-08
2.7503025e-08
3.0829108e-08
3.0393554e-08
2.9081793e-08
2.8171548e-08
2.9938758e-08
2.9572057e-08
2.9431112e-08
2.8638815e-08
2.9150896e-08
2.8816384e-08
2.9658767e-08
2.8991692e-08
2.8444948e-08
2.8109566e-08
2.9843741e-08
2.9299867e-08
2.7801145e-08
2.7432533e-08
3.0049614e-08
2.96248e-08
2.7202259e-08
2.676424e-08
3.0327203e-08
3.0018343e-08
2.6630399e-08
2.6079492e-08
3.0719791e-08
3.0526096e-08
2.6063169e-08
2.5347577e-08
3.1262524e-08
3.1189604e-08
2.5474493e-08
2.4531271e-08
3.1986639e-08
3.2048404e-08
2.4833945e-08
2.3586077e-08
3.2921041e-08
3.3141713e-08
2.4106383e-08
2.2459724e-08
3.4093356e-08
3.4509771e-08
2.3251979e-08
2.1091963e-08
3.5530369e-08
3.619488e-08
2.2226663e-08
1.9414776e-08
3.7258142e-08
3.824218e-08
2.0983061e-08
1.7353041e-08
3.9301723e-08
4.0700143e-08
1.9471685e-08
1.4825992e-08
4.1684456e-08
4.3620727e-08
1.7643424e-08
1.1748778e-08
4.4426859e-08
4.7059337e-08
1.5451815e-08
8.0353603e-09
4.7545041e-08
5.1073683e-08
1.285624e-08
3.6020515e-09
5.1048675e-08
5.57227e-08
9.8256262e-09
-1.6281333e-09
5.4938594e-08
6.1064526e-08
6.3424965e-09
-7.720365e-09
5.9204134e-08
6.7153692e-08
2.407098e-09
-1.4721924e-08
6.3820479e-08
7.4037465e-08
-1.9587935e-09
-2.2655855e-08
6.8746324e-08
8.1751272e-08
-6.7089367e-09
-3.1514244e-08
7.3922321e-08
9.0313205e-08
-1.1771211e-08
-4.1251637e-08
7.9270818e-08
9.9717717e-08
-1.704842e-08
-5.177923e-08
8.4697414e-08
1.0992876e-07
-2.2421945e-08
-6.2960534e-08
9.0094765e-08
1.2087287e-07
-2.7758627e-08
-7.4609614e-08
9.5348841e-08
1.3243303e-07
-3.2920836e-08
-8.6493027e-08
1.0034742e-07
1.4444442e-07
-3.7779036e-08
-9.8336746e-08
1.049901e-07
1.5669369e-07
-4.2225375e-08
-1.0983922e-07
1.091985e-07
1.6892334e-07
-4.6186087e-08
-1.2069119e-07
1.1292476e-07
1.8084282e-07
-4.9629999e-08
-1.3060206e-07
1.1615633e-07
1.9214741e-07
-5.2570906e-08
-1.3933098e-07
1.1891549e-07
2.0254454e-07
-5.5062243e-08
-1.4671927e-07
1.2125336e-07
2.1178601e-07
-5.7181535e-08
-1.5271869e-07
1.2323839e-07
2.1970221e-07
-5.9011224e-08
-1.5740899e-07
1.2494332e-07
2.262323e-07
-6.0626712e-08
-1.6099849e-07
1.2644225e-07
2.3144515e-07
-6.208918e-08
-1.6380548e-07
1.2782514e-07
2.3554781e-07
-6.3464486e-08
-1.6621097e-07
1.292297e-07
2.3886736e-07
-6.4842082e-08
-1.6854444e-07
1.308677e-07
2.4176044e-07
-6.6380249e-08
-1.7092346e-07
1.3304982e-07
2.4445353e-07
-6.8639057e-08
-1.7351949e-07
1.3644291e-07
2.4725871e-07
-7.3330886e-08
-1.779799e-07
1.4267552e-07
2.5184405e-07
-8.2203983e-08
-1.872635e-07
1.5288724e-07
2.6076901e-07
3.5360021e-08
4.0281395e-08
-3.1217728e-09
-1.527995e-08
3.5418072e-08
5.0615891e-08
-4.7706678e-09
-1.8199771e-08
3.5005034e-08
5.316058e-08
-5.9890255e-09
-1.5836348e-08
3.4152696e-08
5.1052077e-08
-6.1205623e-09
-9.8722651e-09
3.4255625e-08
4.7502904e-08
-5.6883117e-09
-3.0677579e-09
3.556312e-08
4.5133873e-08
-4.8195518e-09
2.1928318e-09
3.6831888e-08
4.3395028e-08
-2.5390369e-09
6.666064e-09
3.7418932e-08
4.1885345e-08
1.1932451e-09
1.076295e-08
3.7257714e-08
4.0423524e-08
5.8195011e-09
1.4560055e-08
3.6538205e-08
3.8966112e-08
1.06615e-08
1.7984414e-08
3.5496374e-08
3.7529617e-08
1.5184825e-08
2.094574e-08
3.432764e-08
3.6146292e-08
1.9070419e-08
2.3391648e-08
3.3163528e-08
3.4835959e-08
2.2191625e-08
2.5319389e-08
3.2077145e-08
3.3613828e-08
2.4559787e-08
2.6768779e-08
3.1098787e-08
3.2489805e-08
2.6268044e-08
2.7808401e-08
3.0231999e-08
3.1465114e-08
2.7446417e-08
2.8521588e-08
2.9466198e-08
3.0534833e-08
2.823196e-08
2.8995349e-08
2.8784778e-08
2.9690598e-08
2.8751586e-08
2.9313037e-08
2.8169781e-08
2.892161e-08
2.9114344e-08
2.9550693e-08
2.7604402e-08
2.8212238e-08
2.9409597e-08
2.9777408e-08
2.7069418e-08
2.7544048e-08
2.9708244e-08
3.0049237e-08
2.6547307e-08
2.6896025e-08
3.0067432e-08
3.0416884e-08
2.6016211e-08
2.6242643e-08
3.053077e-08
3.0926155e-08
2.5452142e-08
2.5553122e-08
3.1137702e-08
3.1619886e-08
2.4826763e-08
2.4790403e-08
3.1923191e-08
3.2539648e-08
2.410629e-08
2.391022e-08
3.2919604e-08
3.3727272e-08
2.3251136e-08
2.286039e-08
3.4157893e-08
3.5226169e-08
2.2216051e-08
2.1580406e-08
3.5668586e-08
3.708239e-08
2.0950762e-08
2.0001416e-08
3.7482034e-08
3.9345366e-08
1.9401164e-08
1.8046687e-08
3.9628155e-08
4.2068267e-08
1.751142e-08
1.5632503e-08
4.2135654e-08
4.5307915e-08
1.5226063e-08
1.2670094e-08
4.503069e-08
4.9123912e-08
1.2493747e-08
9.0682022e-09
4.833495e-08
5.3577756e-08
9.2714191e-09
4.7364503e-09
5.2063105e-08
5.8730523e-08
5.5292511e-09
-4.1022437e-10
5.621972e-08
6.4639963e-08
1.2561085e-09
-6.4460457e-09
6.0795763e-08
7.1356649e-08
-3.5348012e-09
-1.3428263e-08
6.5764965e-08
7.8919157e-08
-8.8006247e-09
-2.1389879e-08
7.1080464e-08
8.7348293e-08
-1.4464626e-08
-3.0331966e-08
7.6672262e-08
9.6640483e-08
-2.0413897e-08
-4.0215869e-08
8.2446168e-08
1.0676057e-07
-2.649998e-08
-5.0955856e-08
8.8284954e-08
1.1763447e-07
-3.2543325e-08
-6.2413152e-08
9.4052364e-08
1.2914232e-07
-3.8342244e-08
-7.4392371e-08
9.9600416e-08
1.4111318e-07
-4.3686544e-08
-8.6641796e-08
1.0477999e-07
1.5332265e-07
-4.8375266e-08
-9.8859039e-08
1.0945409e-07
1.6549496e-07
-5.2237006e-08
-1.1070354e-07
1.1351239e-07
1.7731139e-07
-5.5150293e-08
-1.2181704e-07
1.1688504e-07
1.8842653e-07
-5.7060736e-08
-1.3185204e-07
1.1955299e-07
1.9849324e-07
-5.7991679e-08
-1.4050716e-07
1.2155311e-07
2.0719581e-07
-5.8045599e-08
-1.4756587e-07
1.2297671e-07
2.1428932e-07
-5.7392879e-08
-1.5293355e-07
1.2395671e-07
2.1964018e-07
-5.6251287e-08
-1.5666534e-07
1.2465197e-07
2.2326129e-07
-5.4868704e-08
-1.58978e-07
1.2524865e-07
2.2533637e-07
-5.3500063e-08
-1.6024265e-07
1.2594326e-07
2.2622688e-07
-5.2405466e-08
-1.6094539e-07
1.2697167e-07
2.2644916e-07
-5.1839857e-08
-1.615765e-07
1.2862106e-07
2.2657436e-07
-5.2066952e-08
-1.6246027e-07
1.3125002e-07
2.2705229e-07
-5.3667823e-08
-1.6398181e-07
1.3556194e-07
2.2840299e-07
-5.8313871e-08
-1.6797538e-07
1.4333931e-07
2.3252858e-07
-6.7735185e-08
-1.7754488e-07
1.5635546e-07
2.4233795e-07
5.7050914e-08
2.8715745e-08
-4.9138062e-10
-1.8182668e-08
6.2481429e-08
4.1910798e-08
-7.3052383e-09
-2.788587e-08
6.3289191e-08
4.9903036e-08
-1.1232853e-08
-3.1651603e-08
6.0281789e-08
5.1929221e-08
-1.1269196e-08
-2.884766e-08
5.6736643e-08
5.0593002e-08
-9.2759504e-09
-2.184524e-08
5.3779264e-08
4.8686115e-08
-6.260167e-09
-1.4876319e-08
5.0984184e-08
4.6449778e-08
-2.0579213e-09
-7.665059e-09
4.8136597e-08
4.4067967e-08
3.0150489e-09
-6.2111686e-10
4.5294342e-08
4.1735371e-08
8.3588997e-09
5.8491237e-09
4.2591264e-08
3.9586158e-08
1.3421183e-08
1.1476296e-08
4.0130185e-08
3.7677434e-08
1.7837685e-08
1.6141869e-08
3.7959669e-08
3.6010896e-08
2.1439758e-08
1.9851331e-08
3.6083096e-08
3.4565562e-08
2.4210247e-08
2.2691325e-08
3.447514e-08
3.3308942e-08
2.6228593e-08
2.4791449e-08
3.3098265e-08
3.2206478e-08
2.7623345e-08
2.629596e-08
3.1914084e-08
3.1227397e-08
2.8537971e-08
2.7345514e-08
3.0888516e-08
3.0346319e-08
2.9109675e-08
2.8067148e-08
2.9990509e-08
2.954274e-08
2.9458458e-08
2.8570206e-08
2.9194968e-08
2.8799083e-08
2.9683956e-08
2.8946905e-08
2.8481711e-08
2.809957e-08
2.9866181e-08
2.9270831e-08
2.7831302e-08
2.7427082e-08
3.0068918e-08
2.9606018e-08
2.7226615e-08
2.6761526e-08
3.0343336e-08
3.0006203e-08
2.6649806e-08
2.6078364e-08
3.0732988e-08
3.0518243e-08
2.6078462e-08
2.5347316e-08
3.1273145e-08
3.1184508e-08
2.5486428e-08
2.4531442e-08
3.1995084e-08
3.2045078e-08
2.4843183e-08
2.3586429e-08
3.2927676e-08
3.3139522e-08
2.4113483e-08
2.2460117e-08
3.4098514e-08
3.4508306e-08
2.3257403e-08
2.1092331e-08
3.5534344e-08
3.619388e-08
2.2230785e-08
1.9415091e-08
3.7261184e-08
3.8241479e-08
2.098618e-08
1.7353294e-08
3.9304036e-08
4.0699638e-08
1.9474036e-08
1.4826183e-08
4.1686206e-08
4.3620351e-08
1.7645191e-08
1.1748916e-08
4.4428178e-08
4.7059049e-08
1.5453139e-08
8.0354557e-09
4.7546032e-08
5.1073458e-08
1.2857231e-08
3.6021144e-09
5.1049418e-08
5.5722523e-08
9.8263667e-09
-1.6280913e-09
5.4939149e-08
6.1064384e-08
6.3430493e-09
-7.720338e-09
5.9204549e-08
6.7153579e-08
2.4075104e-09
-1.4721907e-08
6.3820788e-08
7.4037375e-08
-1.958486e-09
-2.2655846e-08
6.8746554e-08
8.17512e-08
-6.7087075e-09
-3.1514239e-08
7.3922493e-08
9.0313148e-08
-1.177104e-08
-4.1251635e-08
7.9270946e-08
9.9717672e-08
-1.7048293e-08
-5.177923e-08
8.4697509e-08
1.0992873e-07
-2.242185e-08
-6.2960535e-08
9.0094836e-08
1.2087285e-07
-2.7758556e-08
-7.4609615e-08
9.5348894e-08
1.3243301e-07
-3.2920784e-08
-8.6493028e-08
1.0034746e-07
1.444444e-07
-3.7778997e-08
-9.8336748e-08
1.0499013e-07
1.5669367e-07
-4.2225346e-08
-1.0983922e-07
1.0919853e-07
1.6892333e-07
-4.6186065e-08
-1.2069119e-07
1.1292478e-07
1.8084282e-07
-4.9629983e-08
-1.3060206e-07
1.1615634e-07
1.921474e-07
-5.2570894e-08
-1.3933098e-07
1.189155e-07
2.0254453e-07
-5.5062234e-08
-1.4671927e-07
1.2125337e-07
2.1178601e-07
-5.7181529e-08
-1.5271869e-07
1.232384e-07
2.197022e-07
-5.9011219e-08
-1.5740899e-07
1.2494333e-07
2.262323e-07
-6.0626708e-08
-1.6099849e-07
1.2644225e-07
2.3144515e-07
-6.2089177e-08
-1.6380548e-07
1.2782514e-07
2.3554781e-07
-6.3464484e-08
-1.6621097e-07
1.292297e-07
2.3886736e-07
-6.4842081e-08
-1.6854444e-07
1.3086771e-07
2.4176044e-07
-6.6380248e-08
-1.7092346e-07
1.3304983e-07
2.4445353e-07
-6.8639057e-08
-1.7351949e-07
1.3644291e-07
2.4725871e-07
-7.3330885e-08
-1.779799e-07
1.4267552e-07
2.5184405e-07
-8.2203982e-08
-1.872635e-07
1.5288724e-07
2.6076901e-07
)
;

boundaryField
{
    movingWall
    {
        type            zeroGradient;
    }
    CPLReceiveMD
    {
        type            zeroGradient;
    }
    streamwiseIn
    {
        type            cyclic;
    }
    streamwiseOut
    {
        type            cyclic;
    }
    front
    {
        type            cyclic;
    }
    back
    {
        type            cyclic;
    }
}


// ************************************************************************* //
