/*--------------------------------*- C++ -*----------------------------------*\
| =========                 |                                                 |
| \\      /  F ield         | OpenFOAM: The Open Source CFD Toolbox           |
|  \\    /   O peration     | Version:  3.0.x                                 |
|   \\  /    A nd           | Web:      www.OpenFOAM.org                      |
|    \\/     M anipulation  |                                                 |
\*---------------------------------------------------------------------------*/
FoamFile
{
    version     2.0;
    format      ascii;
    class       surfaceScalarField;
    location    "50";
    object      phi;
}
// * * * * * * * * * * * * * * * * * * * * * * * * * * * * * * * * * * * * * //

dimensions      [0 3 -1 0 0 0 0];

internalField   nonuniform List<scalar> 
2384
(
0.02239046
-1.977696e-07
-6.4798394e-09
0.022390358
8.1061687e-08
6.556502e-09
0.022390458
-1.1721601e-07
-3.8033876e-09
-1.2013215e-07
4.150968e-09
0.11827875
-3.7575314e-08
-1.4288985e-08
0.11827859
2.4301412e-07
3.2998056e-09
0.11827875
-2.4540431e-07
-4.1590493e-09
-2.8479404e-07
3.4270897e-09
0.12131877
-1.3830635e-09
-1.7960976e-08
0.12131873
2.7717355e-07
-3.7402286e-10
0.12131877
-2.5636725e-07
-3.5033517e-09
-3.3434971e-07
3.4292985e-09
0.095414875
-1.2945285e-07
-1.8851957e-08
0.095415013
1.2814136e-07
-2.9265317e-09
0.095414878
-1.0386747e-07
-3.2057166e-09
-2.0208848e-07
3.4121099e-09
0.065563321
-3.9038278e-07
-1.6851296e-08
0.065563617
-1.7126495e-07
-4.1474435e-09
0.065563334
1.7755963e-07
-3.1411989e-09
8.4419612e-08
2.9775611e-09
0.04099623
-6.5944675e-07
-1.3828493e-08
0.040996555
-4.9211198e-07
-4.2542152e-09
0.040996254
4.6488503e-07
-3.1999067e-09
3.9675761e-07
2.5429794e-09
0.023920488
-8.502315e-07
-1.0810194e-08
0.023920742
-7.3656105e-07
-3.7699482e-09
0.023920515
6.7309555e-07
-3.1850231e-09
6.3681946e-07
1.9886361e-09
0.013544177
-9.3161893e-07
-8.2114464e-09
0.013544317
-8.646289e-07
-3.0565111e-09
0.013544202
7.7152863e-07
-3.0303576e-09
7.6398115e-07
1.4442288e-09
0.0080912829
-9.1212048e-07
-6.140008e-09
0.0080913121
-8.806441e-07
-2.3320139e-09
0.0080913018
7.6845342e-07
-2.7518329e-09
7.8171175e-07
9.9007826e-10
0.0057621546
-8.2007621e-07
-4.5603496e-09
0.0057620985
-8.1241571e-07
-1.7046864e-09
0.0057621664
6.9170659e-07
-2.3992235e-09
7.1691932e-07
6.4996754e-10
0.0051192961
-6.8829232e-07
-3.3892008e-09
0.0051191885
-6.9434e-07
-1.2104148e-09
0.0051193017
5.7363472e-07
-2.0233542e-09
6.032006e-07
4.1701259e-10
0.0051775076
-5.4496804e-07
-2.5346301e-09
0.0051773788
-5.5707139e-07
-8.4399989e-10
0.0051775084
4.4215191e-07
-1.6617879e-09
4.7058848e-07
2.7009002e-10
0.0053553089
-4.0985601e-07
-1.9127951e-09
0.0053551814
-4.2287008e-07
-5.8536662e-10
0.0053553066
3.1693543e-07
-1.3371133e-09
3.4092463e-07
1.8468662e-10
0.0053741468
-2.939094e-07
-1.4644472e-09
0.0053740339
-3.0482124e-07
-4.0889899e-10
0.0053741428
2.090529e-07
-1.0598222e-09
2.2705698e-07
1.3893987e-10
0.0051523362
-2.0083962e-07
-1.1453565e-09
0.0051522435
-2.0821295e-07
-2.899891e-10
0.0051523317
1.2245684e-07
-8.3183777e-10
1.3417578e-07
1.1610381e-10
0.0047166863
-1.2936853e-07
-9.2247445e-10
0.0047166138
-1.3277156e-07
-2.0920222e-10
0.0047166818
5.6166851e-08
-6.4959849e-10
6.2004851e-08
1.0485152e-10
0.0041395378
-7.5435771e-08
-7.3703248e-10
0.0041394822
-7.4906187e-08
-1.5267331e-10
0.0041395336
6.378432e-09
-5.0655602e-10
7.0064909e-09
9.8481136e-11
0.0035000556
-3.3786042e-08
-5.9364842e-10
0.003500012
-2.9507858e-08
-1.1091203e-10
0.0035000517
-3.1891079e-08
-3.9521656e-10
-3.584564e-08
9.397089e-11
0.0028645107
9.0349754e-10
-4.8217003e-10
0.0028644739
8.8422998e-09
-7.7657142e-11
0.002864507
-6.373084e-08
-3.0838196e-10
-7.1878875e-08
8.9703793e-11
0.0022793807
3.3461229e-08
-3.9614674e-10
0.0022793456
4.5220162e-08
-4.9766213e-11
0.0022793768
-9.3781266e-08
-2.3986434e-10
-1.0608649e-07
8.8509094e-11
0.0017719158
6.8050813e-08
-3.3126067e-10
0.001771878
8.4128283e-08
-2.4617402e-11
0.0017719113
-1.2606277e-07
-1.8462984e-10
-1.4290018e-07
9.0712836e-11
0.0013542866
1.082457e-07
-2.851231e-10
0.0013542422
1.295446e-07
-6.6529216e-13
0.0013542812
-1.6404471e-07
-1.3899088e-10
-1.8624146e-07
9.7540857e-11
0.0010288924
1.572297e-07
-2.5729043e-10
0.0010288378
1.8512115e-07
2.3241827e-11
0.0010288857
-2.1083219e-07
-1.0209401e-10
-2.3972017e-07
1.1031803e-10
0.00079358233
2.1802883e-07
-2.4677715e-10
0.0007935139
2.5443984e-07
4.806481e-11
0.00079357365
-2.6940118e-07
-7.0215814e-11
-3.0688896e-07
1.3046214e-10
0.00064636685
2.9372782e-07
-2.5340069e-10
0.00064628082
3.412666e-07
7.4614068e-11
0.00064635553
-3.4280529e-07
-4.1460121e-11
-3.9149479e-07
1.594425e-10
0.00058972042
3.876357e-07
-2.7766673e-10
0.0005896126
4.4976875e-07
1.0354314e-10
0.00058970559
-4.3433623e-07
-1.4151299e-11
-4.9769379e-07
1.9880563e-10
0.00063488411
5.0338205e-07
-3.2066858e-10
0.00063474974
5.8467635e-07
1.3530948e-10
0.00063486466
-5.4761631e-07
1.3311957e-11
-6.3021055e-07
2.5020149e-10
0.00080676079
6.4493088e-07
-3.8399612e-10
0.00080659442
7.5137509e-07
1.7012654e-10
0.00080673527
-6.8661004e-07
4.2663938e-11
-7.9442934e-07
3.1534965e-10
0.0011501115
8.165e-07
-4.6963231e-10
0.001149907
9.5591898e-07
2.0793698e-10
0.0011500781
-8.5554217e-07
7.5789345e-11
-9.9640579e-07
3.9603865e-10
0.0017378554
1.0223718e-06
-5.7983301e-10
0.0017376061
1.2049486e-06
2.4844577e-10
0.0017378117
-1.0587078e-06
1.1462917e-10
-1.242785e-06
4.9414176e-10
0.0026823606
1.26658e-06
-7.1676906e-10
0.0026820593
1.5054981e-06
2.9061451e-10
0.0026823035
-1.3001591e-06
1.6121435e-10
-1.5406082e-06
6.1156028e-10
0.0041506879
1.5524587e-06
-8.8265159e-10
0.0041503274
1.8646684e-06
3.332694e-10
0.0041506135
-1.5832552e-06
2.1766914e-10
-1.8969869e-06
7.4992538e-10
0.006384795
1.8820457e-06
-1.0791869e-09
0.0063843685
2.2891485e-06
3.7454406e-10
0.0063846987
-1.9100659e-06
2.8609202e-10
-2.3186252e-06
9.10698e-10
0.0097276873
2.2553451e-06
-1.3072096e-09
0.009727189
2.7845673e-06
4.120974e-10
0.0097275634
-2.2806348e-06
3.6835936e-10
-2.8111728e-06
1.0947164e-09
0.014656371
2.669475e-06
-1.566229e-09
0.014655797
3.3546695e-06
4.4312169e-10
0.014656213
-2.692128e-06
4.6587451e-10
-3.378402e-06
1.3018835e-09
0.021822168
3.1177558e-06
-1.8539073e-09
0.021821517
4.0003269e-06
4.6385742e-10
0.021821968
-3.1379227e-06
5.7926294e-10
-4.0212195e-06
1.5307896e-09
0.032098442
3.5888323e-06
-2.1655028e-09
0.032097718
4.7184129e-06
4.7103586e-10
0.032098191
-3.6067272e-06
7.0801965e-10
-4.7365419e-06
1.7782909e-09
0.046634995
4.0659611e-06
-2.4933215e-09
0.046634206
5.500606e-06
4.6104351e-10
0.046634686
-4.081868e-06
8.5013688e-10
-5.5160983e-06
2.0390785e-09
0.066917343
4.5266381e-06
-2.8262414e-09
0.066916504
6.3322147e-06
4.3061426e-10
0.066916967
-4.5409122e-06
1.0017461e-09
-6.3452533e-06
2.3052702e-09
0.094827703
4.9427659e-06
-3.1493931e-09
0.094826834
7.1911565e-06
3.7727903e-10
0.094827254
-4.9558306e-06
1.1568307e-09
-7.2019819e-06
2.5660871e-09
0.13270299
5.2815698e-06
-3.4440925e-09
0.13270212
8.0472615e-06
2.99923e-10
0.13270246
-5.293906e-06
1.3070795e-09
-8.0561688e-06
2.8076731e-09
0.18338344
5.5074387e-06
-3.6881338e-09
0.18338262
8.8621057e-06
1.9938288e-10
0.18338285
-5.5195654e-06
1.4419621e-09
-8.8694341e-06
3.0131257e-09
0.25024401
5.5847927e-06
-3.856543e-09
0.25024327
9.5896022e-06
7.910572e-11
0.25024335
-5.5972384e-06
1.5491116e-09
-9.5957173e-06
3.1628084e-09
0.33719935
5.4819415e-06
-3.9228776e-09
0.33719875
1.017759e-05
-5.4248532e-11
0.33719865
-5.4952058e-06
1.6150855e-09
-1.0182859e-05
3.2350077e-09
0.44867307
5.1757099e-06
-3.8611112e-09
0.44867266
1.0570639e-05
-1.9034312e-10
0.44867235
-5.1902186e-06
1.6265487e-09
-1.0575397e-05
3.2069814e-09
0.58952197
4.6563783e-06
-3.648085e-09
0.58952181
1.0714223e-05
-3.1496672e-10
0.58952129
-4.6724354e-06
1.5718684e-09
-1.0718743e-05
3.0564245e-09
0.76490846
3.9322459e-06
-3.2664156e-09
0.7649086
1.0560303e-05
-4.1025328e-10
0.76490788
-3.9499906e-06
1.4430285e-09
-1.0564763e-05
2.7633436e-09
0.98011693
3.0329357e-06
-2.707642e-09
0.9801174
1.0074154e-05
-4.5548111e-10
0.9801165
-3.0523121e-06
1.2376628e-09
-1.0078615e-05
2.3122874e-09
1.2403151
2.0104749e-06
-1.9752432e-09
1.2403159
9.2419753e-06
-4.2858882e-10
1.2403149
-2.0312278e-06
9.61086e-10
-9.2463862e-06
1.694828e-09
1.5502668
9.3728211e-07
-1.0870894e-09
1.5502679
8.0785083e-06
-3.0849517e-10
1.5502668
-9.5898612e-07
6.2794446e-10
-8.0827236e-06
9.1215002e-10
1.9140098
-9.9490561e-08
-7.7015266e-11
1.9140113
6.6334162e-06
-7.829293e-11
1.9140102
7.7360826e-08
2.6173772e-10
-6.6372523e-06
-2.2607578e-11
2.3345182
-1.0072428e-06
1.0056652e-09
2.3345198
4.9948564e-06
2.7096796e-10
2.3345189
9.8521689e-07
-1.0616669e-10
-4.9981942e-06
-1.0825873e-09
2.8133741
-1.6999946e-06
2.0981102e-09
2.8133758
3.2884352e-06
7.3623033e-10
2.8133751
1.6784267e-06
-4.3492974e-10
-3.2912767e-06
-2.2259322e-09
3.3504791
-2.1118401e-06
3.1297171e-09
3.3504808
1.6695372e-06
1.2982295e-09
3.3504803
2.0907777e-06
-6.857245e-10
-1.6721068e-06
-3.3963856e-09
3.9438337
-2.2094879e-06
4.0297062e-09
3.9438351
3.0738139e-07
1.9186799e-09
3.943835
2.1885719e-06
-8.2278598e-10
-3.1013853e-07
-4.5249705e-09
4.5894132
-2.0017654e-06
4.737776e-09
4.5894142
-6.4067905e-07
2.5389915e-09
4.5894144
1.9802593e-06
-8.1863758e-10
6.3717287e-07
-5.5335372e-09
5.2811616
-1.5445353e-06
5.2155074e-09
5.281162
-1.0655071e-06
3.0838329e-09
5.2811625
1.5216284e-06
-6.5581682e-10
1.0609716e-06
-6.3406992e-09
6.011115
-9.4071076e-07
5.4552484e-09
6.0111149
-9.5300225e-07
3.4753602e-09
6.0111155
9.1641088e-07
-3.2100841e-10
9.4823046e-07
-6.870689e-09
6.769657
-3.4215966e-07
5.4719303e-09
6.7696565
-4.5263463e-07
3.6454652e-09
6.7696571
3.1914725e-07
2.4187301e-10
4.5069055e-07
-7.0382102e-09
7.5458925
4.7058826e-09
7.545892
3.1609172e-09
7.5458924
1.1280166e-09
-5.9945855e-09
0.02239045
7.0579803e-08
-1.6015034e-10
0.022390325
5.9672017e-08
-2.1953209e-09
0.022390436
-9.2568887e-08
1.1067324e-09
-8.6973065e-08
2.042899e-09
0.11827869
1.8515862e-07
-5.6734738e-09
0.11827853
2.0684388e-07
-3.2412055e-09
0.11827867
-2.1331394e-07
-1.6711653e-09
-2.4312229e-07
-2.0323385e-09
0.12131871
1.9227171e-07
-3.1955696e-09
0.12131866
2.5298386e-07
-1.7912226e-09
0.12131869
-2.288393e-07
-3.0009423e-09
-2.9830511e-07
-4.8106181e-09
0.095414819
2.9450493e-08
-9.9046691e-10
0.095414958
1.1721402e-07
-4.3068728e-10
0.095414805
-7.772303e-08
-2.9875038e-09
-1.7056569e-07
-6.2375464e-09
0.065563292
-2.6149403e-07
3.9460363e-10
0.065563586
-1.708829e-07
4.3227425e-10
0.065563294
2.0202803e-07
-2.3120901e-09
1.0908723e-07
-6.3382454e-09
0.040996238
-5.5538136e-07
1.0601132e-09
0.040996558
-4.8325522e-07
7.010179e-10
0.040996255
4.8698844e-07
-1.287282e-09
4.1451303e-07
-5.8366996e-09
0.02392052
-7.6664234e-07
1.2570303e-09
0.023920768
-7.2248982e-07
6.4024303e-10
0.023920544
6.926744e-07
-4.4605581e-10
6.4886626e-07
-4.9318445e-09
0.013544218
-8.6490992e-07
1.2083483e-09
0.013544352
-8.4819909e-07
4.2905975e-10
0.013544241
7.8866324e-07
1.0266846e-10
7.7191211e-07
-3.9345295e-09
0.0080913228
-8.5928407e-07
1.0661938e-09
0.0080913453
-8.639774e-07
1.9612779e-10
0.0080913398
7.8329388e-07
4.2945476e-10
7.8698834e-07
-3.0242769e-09
0.0057621871
-7.7856019e-07
9.0992432e-10
0.0057621255
-7.9687821e-07
6.717442e-12
0.0057621975
7.0442738e-07
5.9228498e-10
7.2064595e-07
-2.2738414e-09
0.0051193195
-6.5592116e-07
7.7268994e-10
0.0051192075
-6.8066229e-07
-1.1989229e-10
0.0051193239
5.8443171e-07
6.3351712e-10
6.061024e-07
-1.6941379e-09
0.0051775225
-5.1988955e-07
6.6315223e-10
0.0051773905
-5.4551256e-07
-1.89056e-10
0.0051775224
4.5123526e-07
6.006155e-10
4.7308019e-07
-1.2648342e-09
0.0053553173
-3.9050938e-07
5.7873913e-10
0.0053551874
-4.1338761e-07
-2.120025e-10
0.0053553142
3.2451881e-07
5.3194611e-10
3.4320394e-07
-9.5445709e-10
0.0053741505
-2.7901749e-07
5.1234955e-10
0.0053740359
-2.9720418e-07
-2.0382889e-10
0.0053741459
2.1534174e-07
4.53069e-10
2.2918887e-07
-7.3173776e-10
0.0051523372
-1.8939382e-07
4.5680193e-10
0.0051522433
-2.021729e-07
-1.7934395e-10
0.0051523321
1.2764013e-07
3.7744713e-10
1.3615684e-07
-5.7071428e-10
0.0047166858
-1.2059967e-07
4.0732528e-10
0.0047166125
-1.2800186e-07
-1.4916948e-10
0.0047166809
6.0415135e-08
3.0895186e-10
6.3807374e-08
-4.5208263e-10
0.0041395368
-6.8698818e-08
3.6239115e-10
0.0041394806
-7.1115618e-08
-1.1999586e-10
0.0041395323
9.8425343e-09
2.5001233e-10
8.6058695e-09
-3.6265597e-10
0.0035000546
-2.858733e-08
3.212008e-10
0.0035000105
-2.6438575e-08
-9.5784548e-11
0.0035000504
-2.9078861e-08
2.0045894e-10
-3.4460576e-08
-2.9406285e-10
0.00286451
4.935516e-09
2.8418761e-10
0.0028644727
1.1410636e-08
-7.8584101e-11
0.002864506
-6.1455205e-08
1.5906591e-10
-7.070657e-08
-2.4105688e-10
0.0022793804
3.6602019e-08
2.5217507e-10
0.0022793448
4.7470712e-08
-6.8121138e-11
0.0022793763
-9.1945455e-08
1.281893e-10
-1.0510718e-07
-2.0264442e-10
0.0017719157
7.0503517e-08
2.2663352e-10
0.0017718774
8.6213856e-08
-6.400674e-11
0.0017719111
-1.2458201e-07
1.0151458e-10
-1.4208471e-07
-1.7651049e-10
0.0013542867
1.1016021e-07
2.079598e-10
0.0013542418
1.3159578e-07
-6.5763162e-11
0.0013542811
-1.6284632e-07
7.917077e-11
-1.8555714e-07
-1.6184594e-10
0.0010288926
1.5871102e-07
2.0048063e-10
0.0010288375
1.872536e-07
-7.2883035e-11
0.0010288856
-2.0985808e-07
5.7104823e-11
-2.3913591e-07
-1.5838672e-10
0.00079358246
2.1915009e-07
2.0480259e-10
0.00079351344
2.5676109e-07
-8.5043299e-11
0.00079357351
-2.6860395e-07
3.625508e-11
-3.0637891e-07
-1.6633119e-10
0.00064636683
2.9453906e-07
2.224011e-10
0.00064628014
3.4388122e-07
-1.0207055e-10
0.00064635517
-3.4214719e-07
1.5767563e-11
-3.9104108e-07
-1.8620671e-10
0.00058972011
3.8817026e-07
2.5487093e-10
0.00058961152
4.5278198e-07
-1.2386632e-10
0.00058970485
-4.3378865e-07
-4.9747013e-12
-4.9728873e-07
-2.1879746e-10
0.00063488336
5.0366145e-07
3.0396891e-10
0.00063474808
5.881963e-07
-1.503206e-10
0.00063486335
-5.4715845e-07
-2.7621684e-11
-6.2985851e-07
-2.6512774e-10
0.00080675936
6.4496861e-07
3.7178569e-10
0.00080659194
7.5551341e-07
-1.81228e-10
0.00080673314
-6.8622806e-07
-5.3424503e-11
-7.9414877e-07
-3.264622e-10
0.0011501091
8.1630467e-07
4.6070914e-10
0.0011499034
9.607902e-07
-2.1620063e-10
0.0011500748
-8.5522815e-07
-8.386102e-11
-9.9623143e-07
-4.0428532e-10
0.0017378516
1.0219499e-06
5.7331016e-10
0.0017376009
1.2106683e-06
-2.5458521e-10
0.0017378068
-1.0584587e-06
-1.2064084e-10
-1.2427701e-06
-5.002479e-10
0.0026823549
1.265939e-06
7.1199699e-10
0.002682052
1.5121785e-06
-2.9524657e-10
0.0026822964
-1.2999756e-06
-1.6566776e-10
-1.5408264e-06
-6.1607633e-10
0.0041506795
1.5516095e-06
8.7915719e-10
0.0041503172
1.8724133e-06
-3.3673142e-10
0.0041506035
-1.5831397e-06
-2.2095998e-10
-1.8975342e-06
-7.5326371e-10
0.006384783
1.8810054e-06
1.0766255e-09
0.0063843546
2.2980461e-06
-3.771099e-10
0.0063846848
-1.9100199e-06
-2.8852211e-10
-2.3196205e-06
-9.1316539e-10
0.0097276706
2.2541387e-06
1.3053304e-09
0.0097271703
2.7946814e-06
-4.1392182e-10
0.0097275444
-2.2806559e-06
-3.7015408e-10
-2.8127567e-06
-1.0965402e-09
0.014656348
2.6681377e-06
1.5648492e-09
0.014655772
3.3660296e-06
-4.4449985e-10
0.014656187
-2.6922056e-06
-4.6720046e-10
-3.3807344e-06
-1.3032321e-09
0.021822138
3.1163348e-06
1.8528933e-09
0.021821485
4.0129151e-06
-4.6488057e-10
0.021821934
-3.1380337e-06
-5.802431e-10
-4.0244732e-06
-1.531787e-09
0.032098402
3.5873882e-06
2.164757e-09
0.032097676
4.7321529e-06
-4.717917e-10
0.032098148
-3.6068321e-06
-7.0874468e-10
-4.7408943e-06
-1.7790289e-09
0.046634944
4.0645696e-06
2.4927725e-09
0.046634154
5.5153515e-06
-4.6160173e-10
0.046634631
-4.0819071e-06
-8.5067355e-10
-5.5217185e-06
-2.0396248e-09
0.066917279
4.5253924e-06
2.825837e-09
0.066916438
6.3477391e-06
-4.3102669e-10
0.066916899
-4.540805e-06
-1.0021436e-09
-6.352285e-06
-2.3056747e-09
0.094827624
4.94178e-06
3.149095e-09
0.094826755
7.2071456e-06
-3.7758403e-10
0.09482717
-4.9554775e-06
-1.1571253e-09
-7.2105237e-06
-2.5663868e-09
0.13270289
5.2809828e-06
3.4438726e-09
0.13270203
8.0633107e-06
-3.0014871e-10
0.13270236
-5.2931943e-06
-1.307298e-09
-8.0662498e-06
-2.8078952e-09
0.18338333
5.5074213e-06
3.6879714e-09
0.18338251
8.8777222e-06
-1.9955003e-10
0.18338273
-5.5183813e-06
-1.4421243e-09
-8.8809886e-06
-3.0132904e-09
0.25024388
5.5855537e-06
3.8564231e-09
0.25024314
9.6042158e-06
-7.9229595e-11
0.25024321
-5.5954833e-06
-1.549232e-09
-9.6085603e-06
-3.1629306e-09
0.33719921
5.4837344e-06
3.9227889e-09
0.33719861
1.0190572e-05
5.4156669e-11
0.3371985
-5.4928177e-06
-1.6151749e-09
-1.0196665e-05
-3.2350984e-09
0.44867291
5.1788359e-06
3.8610455e-09
0.44867251
1.058133e-05
1.9027496e-10
0.44867219
-5.1871946e-06
-1.6266151e-09
-1.058969e-05
-3.2070487e-09
0.5895218
4.661181e-06
3.6480364e-09
0.58952166
1.0721976e-05
3.1491609e-10
0.58952113
-4.6688518e-06
-1.5719177e-09
-1.0732897e-05
-3.0564744e-09
0.76490829
3.939094e-06
3.2663796e-09
0.76490845
1.0564534e-05
4.1021562e-10
0.76490771
-3.9460148e-06
-1.4430652e-09
-1.0578028e-05
-2.7633806e-09
0.98011676
3.0421869e-06
2.7076153e-09
0.98011725
1.0074405e-05
4.554531e-10
0.98011634
-3.0482003e-06
-1.2376901e-09
-1.0090167e-05
-2.3123149e-09
1.2403149
2.0224188e-06
1.9752234e-09
1.2403157
9.2379929e-06
4.2856792e-10
1.2403147
-2.0273011e-06
-9.6110623e-10
-9.2554087e-06
-1.6948484e-09
1.5502666
9.5206159e-07
1.0870747e-09
1.5502678
8.070318e-06
3.084796e-10
1.5502667
-9.5558211e-07
-6.2795942e-10
-8.0885202e-06
-9.1216521e-10
1.9140097
-8.1973054e-08
7.7004251e-11
1.9140112
6.6214014e-06
7.8281269e-11
1.9140101
7.9956689e-08
-2.6174804e-10
-6.6393811e-06
2.2596289e-11
2.3345181
-9.8742947e-07
-1.0056739e-09
2.3345198
4.9798387e-06
-2.7097678e-10
2.3345189
9.868267e-07
1.0615875e-10
-4.9965875e-06
1.0825791e-09
2.8133741
-1.6787288e-06
-2.0981169e-09
2.8133758
3.2716649e-06
-7.3623718e-10
2.8133751
1.6791228e-06
4.3492376e-10
-3.2863962e-06
2.2259262e-09
3.3504792
-2.0903859e-06
-3.1297222e-09
3.3504808
1.6526758e-06
-1.298235e-09
3.3504804
2.0909195e-06
6.8571999e-10
-1.6649823e-06
3.3963813e-09
3.9438338
-2.189442e-06
-4.0297102e-09
3.9438352
2.9235592e-07
-1.9186847e-09
3.9438351
2.1888357e-06
8.2278264e-10
-3.0230531e-07
4.5249676e-09
4.5894134
-1.9848394e-06
-4.7377794e-09
4.5894143
-6.5200022e-07
-2.5389954e-09
4.5894145
1.9816599e-06
8.1863537e-10
6.4394614e-07
5.5335351e-09
5.2811617
-1.5322313e-06
-5.2155104e-09
5.2811621
-1.0719539e-06
-3.0838363e-09
5.2811626
1.5256247e-06
6.558154e-10
1.065338e-06
6.3406978e-09
6.0111152
-9.3398987e-07
-5.455251e-09
6.011115
-9.5531011e-07
-3.4753631e-09
6.0111157
9.2533454e-07
3.2100738e-10
9.5063531e-07
6.870688e-09
6.7696571
-3.4146325e-07
-5.4719324e-09
6.7696566
-4.5396186e-07
-3.6454675e-09
6.7696572
3.3673035e-07
-2.4187394e-10
4.54505e-07
7.0382093e-09
7.5458925
-4.705884e-09
7.545892
-3.1609185e-09
7.5458924
-1.1280171e-09
5.9945849e-09
0.022390468
1.2385502e-07
-1.3245509e-09
0.022390354
7.7825653e-08
4.1883758e-09
0.022390464
-1.2572513e-07
-2.6573078e-10
-1.2650508e-07
1.2453303e-09
0.11827876
2.2082817e-07
4.3477444e-09
0.1182786
2.4317128e-07
5.3080189e-09
0.11827875
-2.3953653e-07
2.4582381e-09
-2.9048572e-07
5.5778669e-09
0.12131878
2.0362028e-07
2.2599975e-09
0.12131873
2.824371e-07
3.6243642e-09
0.12131877
-2.4199797e-07
3.688254e-09
-3.3567359e-07
8.0996955e-09
0.095414885
2.6835771e-08
4.1580181e-10
0.095415016
1.376371e-07
1.9796491e-09
0.095414877
-8.6309803e-08
3.576499e-09
-1.9819036e-07
9.1129438e-09
0.06556333
-2.7419199e-07
-7.1284201e-10
0.065563618
-1.5952667e-07
7.0850672e-10
0.065563333
1.9550308e-07
2.6767247e-09
9.1704948e-08
8.7355203e-09
0.040996236
-5.7454643e-07
-1.2236728e-09
0.040996556
-4.7995768e-07
2.3867039e-10
0.040996253
4.817629e-07
1.6206953e-09
4.0559033e-07
7.7635736e-09
0.023920493
-7.8885678e-07
-1.3388201e-09
0.023920743
-7.2512457e-07
1.508409e-10
0.023920515
6.8809819e-07
7.6255955e-10
6.4589394e-07
6.4361357e-09
0.01354418
-8.8752417e-07
-1.2537419e-09
0.013544318
-8.5444067e-07
1.7738627e-10
0.013544202
7.8431288e-07
1.3897547e-10
7.7251962e-07
5.0815e-09
0.0080912855
-8.8053014e-07
-1.1000279e-09
0.0080913123
-8.7189275e-07
2.615851e-10
0.0080913018
7.7903291e-07
-2.7474427e-10
7.8932328e-07
3.8818934e-09
0.0057621563
-7.9745233e-07
-9.4392088e-10
0.0057620987
-8.0508683e-07
3.3367643e-10
0.0057621664
7.0028449e-07
-4.9804746e-10
7.2346207e-07
2.9046323e-09
0.0051192973
-6.720697e-07
-8.1079393e-10
0.0051191886
-6.8831503e-07
3.6938335e-10
0.0051193017
5.8048278e-07
-5.8054743e-10
6.0867959e-07
2.1515999e-09
0.0051775084
-5.3330437e-07
-7.0474678e-10
0.0051773789
-5.5218958e-07
3.6960504e-10
0.0051775084
4.4755141e-07
-5.7496502e-10
4.7508694e-07
1.5925527e-09
0.0053553095
-4.0143309e-07
-6.2155173e-10
0.0053551814
-4.1896056e-07
3.4128869e-10
0.0053553067
3.2115059e-07
-5.2348851e-10
3.4456093e-07
1.1867413e-09
0.0053741472
-2.8779679e-07
-5.5390095e-10
0.0053740339
-3.0172116e-07
2.9555406e-10
0.0053741429
2.1231911e-07
-4.5458432e-10
2.2995902e-07
8.9486604e-10
0.0051523365
-1.9639387e-07
-4.9531732e-10
0.0051522435
-2.0577666e-07
2.4370671e-10
0.0051523317
1.2497545e-07
-3.8484456e-10
1.3646663e-07
6.8437655e-10
0.0047166865
-1.2615202e-07
-4.4194435e-10
0.0047166138
-1.3087286e-07
1.937899e-10
0.0047166818
5.8102321e-08
-3.2144566e-10
6.3795857e-08
5.3075957e-10
0.004139538
-7.3106744e-08
-3.926043e-10
0.0041394822
-7.3437039e-08
1.5059653e-10
0.0041395336
7.8603493e-09
-2.6504376e-10
8.3955301e-09
4.1683278e-10
0.0035000557
-3.209809e-08
-3.4688989e-10
0.003500012
-2.8378025e-08
1.1653804e-10
0.0035000517
-3.0762074e-08
-2.1630757e-10
-3.4775463e-08
3.312322e-10
0.0028645108
2.1285849e-09
-3.0557867e-10
0.0028644739
9.7061913e-09
9.2484989e-11
0.002864507
-6.2877748e-08
-1.742289e-10
-7.1059458e-08
2.6650543e-10
0.0022793808
3.4351502e-08
-2.6966008e-10
0.0022793456
4.5877458e-08
7.7414937e-11
0.0022793768
-9.3140517e-08
-1.3893785e-10
-1.0546232e-07
2.2005213e-10
0.0017719158
6.8699353e-08
-2.4071274e-10
0.001771878
8.4626306e-08
7.0180454e-11
0.0017719113
-1.2558275e-07
-1.1047356e-10
-1.4242679e-07
1.8843353e-10
0.0013542866
1.0871793e-07
-2.1937126e-10
0.0013542422
1.2992064e-07
6.9848894e-11
0.0013542812
-1.636821e-07
-8.6548084e-11
-1.8588366e-07
1.7003655e-10
0.0010288924
1.5757352e-07
-2.0951029e-10
0.0010288378
1.854042e-07
7.5584454e-11
0.0010288857
-2.1055907e-07
-6.3056214e-11
-2.3945055e-07
1.6403804e-10
0.00079358234
2.1827895e-07
-2.1189377e-10
0.0007935139
2.5465233e-07
8.6833187e-11
0.00079357366
-2.6919619e-07
-4.1035637e-11
-3.0668633e-07
1.7025312e-10
0.00064636685
2.9390959e-07
-2.279084e-10
0.00064628082
3.4142579e-07
1.0326386e-10
0.00064635554
-3.4265229e-07
-1.9392251e-11
-3.9134289e-07
1.8894753e-10
0.00058972042
3.8776778e-07
-2.5909218e-10
0.0005896126
4.4988785e-07
1.2467048e-10
0.00058970559
-4.3422213e-07
2.1714509e-12
-4.9758025e-07
2.2072856e-10
0.00063488412
5.0347809e-07
-3.0716638e-10
0.00063474974
5.847654e-07
1.5087054e-10
0.00063486466
-5.4753138e-07
2.5475249e-11
-6.3012591e-07
2.6650115e-10
0.0008067608
6.450008e-07
-3.7418463e-10
0.00080659442
7.5144165e-07
1.8161057e-10
0.00080673527
-6.8654704e-07
5.1795344e-11
-7.9436638e-07
3.2744924e-10
0.0011501115
8.1655099e-07
-4.6249495e-10
0.001149907
9.5596865e-07
2.164715e-10
0.0011500781
-8.554956e-07
8.2633854e-11
-9.9635904e-07
4.050025e-10
0.0017378554
1.0224091e-06
-5.7463074e-10
0.0017376061
1.2049856e-06
2.5478066e-10
0.0017378117
-1.0586734e-06
1.1972252e-10
-1.2427503e-06
5.0077455e-10
0.0026823606
1.2666072e-06
-7.1296785e-10
0.0026820593
1.5055256e-06
2.9539076e-10
0.0026823035
-1.3001338e-06
1.6498451e-10
-1.5405825e-06
6.164672e-10
0.0041506879
1.5524786e-06
-8.7986723e-10
0.0041503274
1.8646887e-06
3.3683966e-10
0.0041506135
-1.5832366e-06
2.2045421e-10
-1.8969679e-06
7.5355641e-10
0.006384795
1.8820603e-06
-1.0771423e-09
0.0063843685
2.2891636e-06
3.7719252e-10
0.0063846987
-1.9100521e-06
2.8814943e-10
-2.3186111e-06
9.1338604e-10
0.0097276873
2.2553558e-06
-1.3057049e-09
0.009727189
2.7845786e-06
4.1398577e-10
0.0097275634
-2.2806246e-06
3.6988058e-10
-2.8111623e-06
1.0967074e-09
0.014656371
2.6694829e-06
-1.5651194e-09
0.014655797
3.3546779e-06
4.4459216e-10
0.014656213
-2.6921205e-06
4.6700044e-10
-3.3783942e-06
1.3033591e-09
0.021822168
3.1177616e-06
-1.8530875e-09
0.021821517
4.0003331e-06
4.6495281e-10
0.021821968
-3.1379171e-06
5.800973e-10
-4.0212137e-06
1.5318836e-09
0.032098442
3.5888366e-06
-2.1648961e-09
0.032097718
4.7184174e-06
4.718468e-10
0.032098191
-3.6067231e-06
7.0863872e-10
-4.7365376e-06
1.7791025e-09
0.046634995
4.0659643e-06
-2.4928717e-09
0.046634206
5.5006093e-06
4.6164357e-10
0.046634686
-4.0818649e-06
8.5059675e-10
-5.5160952e-06
2.0396808e-09
0.066917343
4.5266404e-06
-2.8259075e-09
0.066916504
6.3322172e-06
4.310584e-10
0.066916967
-4.5409099e-06
1.0020881e-09
-6.3452509e-06
2.3057173e-09
0.094827703
4.9427677e-06
-3.1491449e-09
0.094826834
7.1911583e-06
3.7760802e-10
0.094827254
-4.955829e-06
1.1570853e-09
-7.2019802e-06
2.5664191e-09
0.13270299
5.2815711e-06
-3.4439078e-09
0.13270212
8.0472629e-06
3.0016681e-10
0.13270246
-5.2939047e-06
1.3072692e-09
-8.0561675e-06
2.8079197e-09
0.18338344
5.5074396e-06
-3.6879961e-09
0.18338262
8.8621067e-06
1.9956365e-10
0.18338285
-5.5195645e-06
1.4421036e-09
-8.8694331e-06
3.0133088e-09
0.25024401
5.5847934e-06
-3.8564404e-09
0.25024327
9.589603e-06
7.9239831e-11
0.25024335
-5.5972377e-06
1.5492172e-09
-9.5957165e-06
3.1629445e-09
0.33719935
5.481942e-06
-3.922801e-09
0.33719875
1.0177591e-05
-5.4148988e-11
0.33719865
-5.4952053e-06
1.6151643e-09
-1.0182858e-05
3.2351088e-09
0.44867307
5.1757103e-06
-3.861054e-09
0.44867266
1.0570639e-05
-1.9026921e-10
0.44867235
-5.1902182e-06
1.6266077e-09
-1.0575396e-05
3.2070565e-09
0.58952197
4.6563786e-06
-3.6480424e-09
0.58952181
1.0714223e-05
-3.1491181e-10
0.58952129
-4.6724351e-06
1.5719125e-09
-1.0718742e-05
3.0564802e-09
0.76490846
3.9322461e-06
-3.2663838e-09
0.7649086
1.0560304e-05
-4.1021243e-10
0.76490788
-3.9499904e-06
1.4430616e-09
-1.0564763e-05
2.7633849e-09
0.98011693
3.0329358e-06
-2.7076182e-09
0.9801174
1.0074154e-05
-4.5545073e-10
0.9801165
-3.052312e-06
1.2376876e-09
-1.0078615e-05
2.3123181e-09
1.2403151
2.010475e-06
-1.9752253e-09
1.2403159
9.2419754e-06
-4.2856621e-10
1.2403149
-2.0312277e-06
9.6110446e-10
-9.2463861e-06
1.6948507e-09
1.5502668
9.372822e-07
-1.087076e-09
1.5502679
8.0785084e-06
-3.0847837e-10
1.5502668
-9.5898603e-07
6.279582e-10
-8.0827235e-06
9.1216695e-10
1.9140098
-9.9490498e-08
-7.7005296e-11
1.9140113
6.6334162e-06
-7.8280404e-11
1.9140102
7.7360892e-08
2.6174802e-10
-6.6372522e-06
-2.2594948e-11
2.3345182
-1.0072427e-06
1.0056726e-09
2.3345198
4.9948564e-06
2.7097752e-10
2.3345189
9.8521693e-07
-1.0615869e-10
-4.9981941e-06
-1.0825779e-09
2.8133741
-1.6999946e-06
2.0981159e-09
2.8133758
3.2884352e-06
7.3623789e-10
2.8133751
1.6784267e-06
-4.3492383e-10
-3.2912767e-06
-2.2259254e-09
3.3504791
-2.11184e-06
3.1297215e-09
3.3504808
1.6695373e-06
1.2982357e-09
3.3504803
2.0907777e-06
-6.8572019e-10
-1.6721068e-06
-3.3963809e-09
3.9438337
-2.2094879e-06
4.0297101e-09
3.9438351
3.0738141e-07
1.9186851e-09
3.943835
2.1885719e-06
-8.2278309e-10
-3.1013851e-07
-4.5249674e-09
4.5894132
-2.0017654e-06
4.7377796e-09
4.5894142
-6.4067904e-07
2.5389957e-09
4.5894144
1.9802593e-06
-8.1863601e-10
6.3717288e-07
-5.533535e-09
5.2811616
-1.5445353e-06
5.215511e-09
5.281162
-1.0655071e-06
3.0838364e-09
5.2811625
1.5216284e-06
-6.5581631e-10
1.0609717e-06
-6.3406977e-09
6.011115
-9.4071076e-07
5.4552519e-09
6.0111149
-9.5300224e-07
3.4753631e-09
6.0111155
9.1641089e-07
-3.2100863e-10
9.4823047e-07
-6.8706878e-09
6.769657
-3.4215967e-07
5.4719332e-09
6.7696565
-4.5263463e-07
3.6454675e-09
6.7696571
3.1914726e-07
2.418728e-10
4.5069056e-07
-7.0382092e-09
7.5458925
4.7058842e-09
7.545892
3.1609185e-09
7.5458924
1.1280165e-09
-5.9945849e-09
0.022390453
7.5732739e-08
0.022390324
5.7387804e-08
0.022390438
-9.3992069e-08
-8.8375686e-08
0.11827869
1.9206709e-07
0.11827853
2.0288932e-07
0.11827867
-2.1469092e-07
-2.4757113e-07
0.12131871
1.9862218e-07
0.12131866
2.4840583e-07
0.12131869
-2.3038435e-07
-3.0505668e-07
0.095414821
3.4035379e-08
0.095414958
1.1276058e-07
0.095414807
-7.9391352e-08
-1.783071e-07
0.065563294
-2.585891e-07
0.065563586
-1.7507022e-07
0.065563296
2.0028558e-07
1.0140786e-07
0.040996239
-5.5370033e-07
0.040996558
-4.8698639e-07
0.040996256
4.8538096e-07
4.0753784e-07
0.023920521
-7.6573047e-07
0.023920767
-7.2565653e-07
0.023920545
6.9135243e-07
6.4289366e-07
0.013544219
-8.6443265e-07
0.013544352
-8.5081755e-07
0.013544241
7.8765374e-07
7.6700947e-07
0.0080913232
-8.5902601e-07
0.0080913452
-8.6609361e-07
0.0080913403
7.8256064e-07
7.8309054e-07
0.0057621873
-7.7839666e-07
0.0057621253
-7.9855368e-07
0.0057621979
7.0392392e-07
7.1762439e-07
0.0051193197
-6.5578957e-07
0.0051192074
-6.8196439e-07
0.0051193242
5.841085e-07
6.0380792e-07
0.0051775227
-5.1976053e-07
0.0051773905
-5.4650744e-07
0.0051775227
4.5104599e-07
4.713677e-07
0.0053553174
-3.9037512e-07
0.0053551873
-4.1413574e-07
0.0053553144
3.2442446e-07
3.4194448e-07
0.0053741506
-2.788823e-07
0.0053740359
-2.9775832e-07
0.005374146
2.1531194e-07
2.2827413e-07
0.0051523372
-1.8926616e-07
0.0051522432
-2.0257776e-07
0.0051523322
1.2765181e-07
1.3549944e-07
0.0047166859
-1.2048023e-07
0.0047166125
-1.2829402e-07
0.004716681
6.0449739e-08
6.3339101e-08
0.0041395369
-6.859027e-08
0.0041394806
-7.1324212e-08
0.0041395323
9.8873036e-09
8.2745856e-09
0.0035000546
-2.8491338e-08
0.0035000104
-2.6586161e-08
0.0035000505
-2.9032481e-08
-3.4693765e-08
0.00286451
5.0184131e-09
0.0028644727
1.130683e-08
0.0028645061
-6.1412333e-08
-7.0870046e-08
0.0022793804
3.6672168e-08
0.0022793448
4.739824e-08
0.0022793763
-9.1906159e-08
-1.0522151e-07
0.0017719157
7.05618e-08
0.0017718774
8.6163573e-08
0.0017719111
-1.2454755e-07
-1.4216453e-07
0.0013542867
1.1020767e-07
0.0013542418
1.3156105e-07
0.0013542811
-1.6281701e-07
-1.8561285e-07
0.0010288926
1.5874907e-07
0.0010288375
1.8722969e-07
0.0010288857
-2.0983381e-07
-2.3917483e-07