/*--------------------------------*- C++ -*----------------------------------*\
| =========                 |                                                 |
| \\      /  F ield         | OpenFOAM: The Open Source CFD Toolbox           |
|  \\    /   O peration     | Version:  3.0.x                                 |
|   \\  /    A nd           | Web:      www.OpenFOAM.org                      |
|    \\/     M anipulation  |                                                 |
\*---------------------------------------------------------------------------*/
FoamFile
{
    version     2.0;
    format      ascii;
    class       volScalarField;
    location    "50";
    object      sigmazz;
}
// * * * * * * * * * * * * * * * * * * * * * * * * * * * * * * * * * * * * * //

dimensions      [0 2 -2 0 0 0 0];

internalField   nonuniform List<scalar> 
960
(
3.5452702e-09
3.1790251e-10
5.6642762e-11
3.6055812e-10
1.0068484e-09
8.7153055e-10
-1.2704677e-09
-8.1622948e-10
-4.3954707e-10
4.7628877e-10
-9.7910082e-10
-5.2425532e-10
-4.7435285e-10
5.0408926e-10
-7.7556531e-10
-5.0779128e-10
-4.1484783e-10
2.6040056e-10
-3.6530176e-10
-2.7399605e-10
-4.2879492e-10
1.7353076e-10
-2.0346752e-10
-2.2415038e-10
-4.3214611e-10
6.5463229e-11
-9.8257567e-11
-1.424015e-10
-4.149441e-10
-1.5037448e-11
-3.3097388e-11
-8.0921744e-11
-3.5909174e-10
-6.1921133e-11
-2.0874187e-11
-4.581077e-11
-2.9139026e-10
-8.1850414e-11
-3.0412244e-11
-3.0273545e-11
-2.26581e-10
-8.4246882e-11
-4.3168553e-11
-2.5668613e-11
-1.7178584e-10
-7.8263104e-11
-5.0734423e-11
-2.4458831e-11
-1.2815811e-10
-6.877105e-11
-5.2245815e-11
-2.3703964e-11
-9.7625221e-11
-6.0480653e-11
-4.6472772e-11
-2.0490137e-11
-7.5102274e-11
-5.2272381e-11
-3.8921236e-11
-1.7342299e-11
-5.965523e-11
-4.5133139e-11
-3.0290975e-11
-1.4205353e-11
-5.140319e-11
-4.2024868e-11
-1.9807764e-11
-8.6239578e-12
-4.6283227e-11
-3.9649476e-11
-1.0911811e-11
-4.0972663e-12
-4.2943763e-11
-4.0067046e-11
-4.3160615e-12
1.4377318e-12
-4.3196992e-11
-4.1760159e-11
2.599654e-12
6.6432073e-12
-4.6450518e-11
-4.5539208e-11
1.0068643e-11
1.2624861e-11
-5.037635e-11
-5.057512e-11
1.6388979e-11
1.8827857e-11
-5.6130599e-11
-5.76154e-11
2.3193469e-11
2.6237318e-11
-6.3909991e-11
-6.6879575e-11
3.1099294e-11
3.5295462e-11
-7.3610369e-11
-7.8476003e-11
4.0333314e-11
4.62944e-11
-8.6008396e-11
-9.3003188e-11
5.1909031e-11
5.9972482e-11
-1.0123677e-10
-1.1087705e-10
6.6130428e-11
7.6849334e-11
-1.1973661e-10
-1.3281448e-10
8.3570349e-11
9.7717573e-11
-1.4226569e-10
-1.595989e-10
1.0509504e-10
1.234196e-10
-1.6971078e-10
-1.9309471e-10
1.3168663e-10
1.5586996e-10
-2.0169127e-10
-2.307981e-10
1.6305618e-10
1.9261108e-10
-2.3918236e-10
-2.7784999e-10
2.0027413e-10
2.3883644e-10
-2.8513894e-10
-3.3402737e-10
2.4639887e-10
2.943883e-10
-3.3776325e-10
-4.000335e-10
2.9974338e-10
3.6005276e-10
-3.9666846e-10
-4.7837688e-10
3.6003637e-10
4.3842969e-10
-4.6205024e-10
-5.6994012e-10
4.2758795e-10
5.3050062e-10
-5.3626427e-10
-6.7209926e-10
5.0485332e-10
6.3374987e-10
-6.3169765e-10
-7.9102713e-10
6.0428872e-10
7.5444544e-10
-7.2335699e-10
-9.3756285e-10
7.0091864e-10
9.0349717e-10
-8.3297921e-10
-1.086108e-09
8.1642152e-10
1.0553138e-09
-9.5071093e-10
-1.2568203e-09
9.4078713e-10
1.2300173e-09
-1.0480356e-09
-1.5119289e-09
1.0452257e-09
1.4896988e-09
-1.1919547e-09
-1.7333409e-09
1.1963379e-09
1.716009e-09
-1.3369189e-09
-1.8917354e-09
1.3480535e-09
1.8793145e-09
-1.4908877e-09
-2.0524549e-09
1.5077273e-09
2.0445483e-09
-1.6198655e-09
-2.3391675e-09
1.6407365e-09
2.3349427e-09
-1.6426864e-09
-2.6206073e-09
1.6653602e-09
2.6188533e-09
-1.7463304e-09
-2.860787e-09
1.7682283e-09
2.8600594e-09
-1.7999396e-09
-3.0191334e-09
1.818405e-09
3.0180054e-09
-1.8663513e-09
-3.2722853e-09
1.8786864e-09
3.2696515e-09
-2.1529891e-09
-3.109496e-09
2.1584763e-09
3.1050289e-09
-1.7385479e-09
-3.7346592e-09
1.7384188e-09
3.7290601e-09
-1.415856e-09
-3.8951702e-09
1.4112586e-09
3.8901075e-09
-2.0131759e-09
-4.0045048e-09
2.0074202e-09
4.0024007e-09
-1.9677447e-09
-4.2563341e-09
1.9657393e-09
4.2594027e-09
-1.8196979e-09
-3.4090344e-09
1.8251716e-09
3.4175115e-09
-2.0322077e-09
-4.1669584e-09
2.0477909e-09
4.1778066e-09
-1.783185e-09
-3.8844986e-09
1.8113537e-09
3.8791565e-09
-9.2410821e-10
-2.6475425e-09
8.3256892e-10
2.6193458e-09
-2.1078586e-09
-3.754656e-09
1.8564108e-09
3.7269828e-09
2.9202444e-10
4.9493964e-10
1.3780806e-11
-7.7297758e-11
7.9026076e-10
9.0215009e-10
-6.8362021e-10
-6.3841009e-10
4.6605484e-10
3.3376406e-10
-3.6913283e-10
-1.3749504e-10
3.2208512e-10
2.5293772e-10
-1.8102445e-10
-4.8675347e-11
6.8011696e-11
6.8256573e-11
8.3677678e-11
8.8645521e-11
1.4008473e-11
6.8010772e-11
1.0341154e-10
5.6482861e-11
-3.7245172e-11
3.7246764e-11
1.1278848e-10
6.4291306e-11
-7.0424158e-11
1.3490444e-11
1.0408576e-10
5.1844965e-11
-7.5317304e-11
-6.5129063e-12
7.5037615e-11
3.8797821e-11
-6.6253511e-11
-1.5427879e-11
4.3409066e-11
2.2541183e-11
-5.1963338e-11
-2.0388759e-11
1.7236308e-11
1.0497924e-11
-4.0514459e-11
-2.2985629e-11
1.9986874e-12
3.2058452e-12
-3.1775076e-11
-2.2738089e-11
-5.3167352e-12
-1.5975294e-12
-2.573364e-11
-2.3843104e-11
-7.1979503e-12
-1.5929066e-12
-2.2879988e-11
-2.2972303e-11
-5.0069058e-12
-1.7391144e-12
-2.2477347e-11
-2.4907954e-11
-7.9136201e-13
1.5137286e-12
-2.3663559e-11
-2.5628373e-11
3.8192523e-12
3.3568243e-12
-2.5246769e-11
-2.8372719e-11
7.4635545e-12
6.628742e-12
-2.8539808e-11
-3.1895897e-11
1.1547483e-11
9.9275559e-12
-3.2567227e-11
-3.5898318e-11
1.528143e-11
1.2957986e-11
-3.7176671e-11
-4.1344101e-11
1.8818117e-11
1.6805823e-11
-4.2808154e-11
-4.8128437e-11
2.2846977e-11
2.1519986e-11
-5.0079465e-11
-5.6590995e-11
2.8190874e-11
2.7580898e-11
-5.8927713e-11
-6.6958559e-11
3.4982337e-11
3.5340458e-11
-6.9739623e-11
-7.9658189e-11
4.3741313e-11
4.5329689e-11
-8.3076293e-11
-9.52467e-11
5.5120652e-11
5.8191717e-11
-9.9374667e-11
-1.1440497e-10
6.9623023e-11
7.4683722e-11
-1.1925012e-10
-1.3764809e-10
8.7911077e-11
9.5395577e-11
-1.4351262e-10
-1.659812e-10
1.1083056e-10
1.2141516e-10
-1.730977e-10
-2.0035565e-10
1.3934655e-10
1.5379477e-10
-2.085576e-10
-2.4187859e-10
1.7403641e-10
1.937633e-10
-2.4957483e-10
-2.915141e-10
2.1461069e-10
2.4243092e-10
-3.0025068e-10
-3.5005317e-10
2.6520029e-10
3.0075688e-10
-3.5881969e-10
-4.1919099e-10
3.2406968e-10
3.7061842e-10
-4.2714031e-10
-5.0239953e-10
3.9310935e-10
4.5568193e-10
-5.0543142e-10
-5.9817619e-10
4.7256661e-10
5.5462874e-10
-6.0272513e-10
-7.1039169e-10
5.7149312e-10
6.7147217e-10
-6.9925018e-10
-8.3840176e-10
6.7011734e-10
8.056427e-10
-8.0332581e-10
-9.9290499e-10
7.767269e-10
9.678094e-10
-9.3672529e-10
-1.1592862e-09
9.1302161e-10
1.1431919e-09
-1.0674605e-09
-1.3354754e-09
1.0468827e-09
1.3293732e-09
-1.1670948e-09
-1.5060733e-09
1.1496735e-09
1.51042e-09
-1.4247733e-09
-1.8304987e-09
1.4102769e-09
1.8450388e-09
-1.4621664e-09
-2.0910742e-09
1.4500505e-09
2.114663e-09
-1.5091902e-09
-2.2425781e-09
1.4985829e-09
2.2731151e-09
-1.7537059e-09
-2.5201806e-09
1.7434589e-09
2.5546322e-09
-1.8924143e-09
-2.6823998e-09
1.8812263e-09
2.716957e-09
-1.8899205e-09
-2.9160408e-09
1.8765732e-09
2.9464985e-09
-1.9474184e-09
-3.1815609e-09
1.931282e-09
3.2038505e-09
-2.0156085e-09
-3.323845e-09
1.9971846e-09
3.3346992e-09
-2.190068e-09
-4.1648025e-09
2.1702294e-09
4.1623644e-09
-1.770219e-09
-3.6915152e-09
1.7511798e-09
3.6760085e-09
-1.4363001e-09
-3.8693818e-09
1.4233795e-09
3.8435406e-09
-2.0165461e-09
-4.0019561e-09
2.015565e-09
3.9705179e-09
-1.9497268e-09
-3.1718651e-09
1.9644668e-09
3.1402589e-09
-1.7784469e-09
-4.5718914e-09
1.8090181e-09
4.5440503e-09
-8.5957171e-10
-4.2381121e-09
8.995395e-10
4.2125852e-09
-1.7036741e-09
-3.9404719e-09
1.7201203e-09
3.902818e-09
-8.5957158e-10
-2.6754939e-09
8.166961e-10
2.6317318e-09
-2.0784862e-09
-3.7610217e-09
2.023879e-09
3.7530882e-09
6.7433638e-11
1.6413958e-10
3.0946847e-10
2.3552326e-10
1.8414484e-09
9.9516918e-10
-8.6774654e-10
-7.205046e-10
1.6235607e-09
6.1596774e-10
-5.874028e-10
-3.9754622e-10
1.3242307e-09
6.6642112e-10
-3.7417734e-10
-3.6428376e-10
7.7712835e-10
4.243226e-10
7.7037674e-12
-1.3324436e-10
4.9620034e-10
3.4527263e-10
8.9960966e-11
-9.2132048e-11
2.4666696e-10
2.1911549e-10
1.5877151e-10
-1.6107752e-11
8.786191e-11
1.1461269e-10
1.6634763e-10
3.3317193e-11
3.8175529e-12
4.5379193e-11
1.3492061e-10
5.1683973e-11
-3.1138517e-11
6.0498469e-12
8.9776944e-11
4.981589e-11
-4.0900317e-11
-1.5143847e-11
4.944178e-11
4.0863596e-11
-3.9299073e-11
-2.2754413e-11
2.0252706e-11
2.8367859e-11
-3.4199905e-11
-2.5213115e-11
2.7003731e-12
1.8616037e-11
-2.9043446e-11
-2.5410576e-11
-5.8346856e-12
1.2116348e-11
-2.5550046e-11
-2.485582e-11
-8.0259418e-12
8.3054248e-12
-2.4352145e-11
-2.3786383e-11
-6.1140431e-12
5.8582955e-12
-2.4189377e-11
-2.5479782e-11
-3.031321e-12
6.9717954e-12
-2.6566462e-11
-2.8001922e-11
1.8934224e-12
9.0579144e-12
-3.0856705e-11
-3.0278187e-11
7.6644321e-12
1.0699462e-11
-3.5035917e-11
-3.4278633e-11
1.2229063e-11
1.3737365e-11
-3.8906475e-11
-3.9842201e-11
1.5648501e-11
1.8032586e-11
-4.4985066e-11
-4.6255596e-11
2.0674883e-11
2.2929387e-11
-5.2226624e-11
-5.4353543e-11
2.6434229e-11
2.9334698e-11
-6.0980375e-11
-6.4423202e-11
3.3455181e-11
3.762785e-11
-7.1473171e-11
-7.6631066e-11
4.2101154e-11
4.8046445e-11
-8.4450821e-11
-9.1621163e-11
5.3229285e-11
6.1285677e-11
-1.0010226e-10
-1.0984388e-10
6.7113536e-11
7.7831155e-11
-1.1890999e-10
-1.3204299e-10
8.4302232e-11
9.8449952e-11
-1.4166296e-10
-1.5913454e-10
1.0563843e-10
1.2407605e-10
-1.6927088e-10
-1.9266628e-10
1.32089e-10
1.5627547e-10
-2.013699e-10
-2.3047856e-10
1.633538e-10
1.9291178e-10
-2.3894704e-10
-2.7761168e-10
2.0049339e-10
2.3905948e-10
-2.8496632e-10
-3.3385069e-10
2.465607e-10
2.9455414e-10
-3.3763698e-10
-3.9990343e-10
2.9986298e-10
3.6017533e-10
-3.9657513e-10
-4.7828058e-10
3.6012446e-10
4.385207e-10
-4.6198133e-10
-5.6986806e-10
4.2765318e-10
5.3056833e-10
-5.3621393e-10
-6.7204631e-10
5.0490175e-10
6.3379956e-10
-6.3166056e-10
-7.9098828e-10
6.0432467e-10
7.5448237e-10
-7.2332983e-10
-9.3753645e-10
7.0094486e-10
9.0352107e-10
-8.3295879e-10
-1.0860842e-09
8.1644071e-10
1.0553358e-09
-9.5069573e-10
-1.2568023e-09
9.4080208e-10
1.2300349e-09
-1.0480244e-09
-1.5119177e-09
1.0452368e-09
1.4897098e-09
-1.1919465e-09
-1.7333314e-09
1.1963452e-09
1.7160182e-09
-1.3369132e-09
-1.8917317e-09
1.3480591e-09
1.8793181e-09
-1.4908834e-09
-2.0524521e-09
1.5077321e-09
2.0445509e-09
-1.6198623e-09
-2.339161e-09
1.6407397e-09
2.3349447e-09
-1.6426841e-09
-2.6206014e-09
1.6653625e-09
2.6188592e-09
-1.7463285e-09
-2.8607859e-09
1.7682302e-09
2.8600649e-09
-1.7999384e-09
-3.0191326e-09
1.8184066e-09
3.0180062e-09
-1.8663504e-09
-3.2722847e-09
1.8786874e-09
3.2696521e-09
-2.1529882e-09
-3.109496e-09
2.1584767e-09
3.1050289e-09
-1.7385475e-09
-3.7346593e-09
1.7384191e-09
3.72906e-09
-1.4158558e-09
-3.89517e-09
1.4112591e-09
3.8901082e-09
-2.0131757e-09
-4.0045046e-09
2.0074208e-09
4.0024009e-09
-1.9677442e-09
-4.2563336e-09
1.9657395e-09
4.2594027e-09
-1.8196974e-09
-3.4090343e-09
1.8251716e-09
3.417512e-09
-2.0322076e-09
-4.1669581e-09
2.0477909e-09
4.1778063e-09
-1.7831849e-09
-3.8844981e-09
1.8113537e-09
3.8791565e-09
-9.241081e-10
-2.6475425e-09
8.325689e-10
2.6193463e-09
-2.1078586e-09
-3.754656e-09
1.8564109e-09
3.7269828e-09
2.6569799e-10
4.5531641e-10
1.4270003e-11
-1.3357148e-10
7.9093596e-10
8.5165237e-10
-6.9016478e-10
-6.9687802e-10
4.8015425e-10
2.8756183e-10
-3.653359e-10
-2.0482924e-10
3.6222743e-10
1.939282e-10
-1.9642079e-10
-1.0911122e-10
1.030728e-10
1.2758084e-11
7.1055155e-11
2.7573493e-11
3.9091586e-11
2.9060012e-11
9.1916443e-11
-1.1201114e-11
-2.072983e-11
3.7842683e-12
1.0240426e-10
4.5804882e-12
-6.2129858e-11
-1.7702576e-11
9.7735964e-11
4.8262289e-12
-6.9749945e-11
-3.1299948e-11
6.9726687e-11
3.4835312e-14
-6.2980636e-11
-3.5602988e-11
4.0022916e-11
-7.6714723e-12
-5.109605e-11
-3.5558195e-11
1.6506675e-11
-1.3475342e-11
-3.9246927e-11
-3.3828157e-11
1.3488471e-12
-1.5830259e-11
-2.9786296e-11
-3.098314e-11
-6.2119193e-12
-1.5816691e-11
-2.3963557e-11
-3.0031151e-11
-7.5031331e-12
-1.2070005e-11
-2.1276497e-11
-2.7556821e-11
-4.9288078e-12
-9.3686489e-12
-2.1056187e-11
-2.8261529e-11
-4.7745207e-13
-3.9859885e-12
-2.2426465e-11
-2.8051116e-11
4.2584364e-12
-5.7387964e-13
-2.4177111e-11
-3.0105608e-11
7.947144e-12
3.8383949e-12
-2.7626826e-11
-3.3125782e-11
1.2017841e-11
7.9569329e-12
-3.1799271e-11
-3.6765525e-11
1.5703275e-11
1.1571586e-11
-3.6541112e-11
-4.1952872e-11
1.9183141e-11
1.583249e-11
-4.2290415e-11
-4.8553957e-11
2.3158403e-11
2.0837364e-11
-4.966295e-11
-5.6886786e-11
2.8451017e-11
2.7102629e-11
-5.8596817e-11
-6.7163648e-11
3.5195222e-11
3.5004993e-11
-6.947984e-11
-7.9800418e-11
4.3911987e-11
4.5093751e-11
-8.2874623e-11
-9.5345487e-11
5.5255476e-11
5.8025122e-11
-9.9219627e-11
-1.1447399e-10
6.9728498e-11
7.4565401e-11
-1.1913173e-10
-1.3769644e-10
8.7992676e-11
9.5311034e-11
-1.4342356e-10
-1.6601541e-10
1.1089303e-10
1.213549e-10
-1.7303099e-10
-2.0038017e-10
1.3939371e-10
1.5375153e-10
-2.0850743e-10
-2.4189609e-10
1.7407175e-10
1.9373163e-10
-2.4953767e-10
-2.9152728e-10
2.1463698e-10
2.424078e-10
-3.0022362e-10
-3.5006272e-10
2.6521983e-10
3.0073935e-10
-3.5879991e-10
-4.1919741e-10
3.2408402e-10
3.706056e-10
-4.2712535e-10
-5.024049e-10
3.9311928e-10
4.5567275e-10
-5.0542046e-10
-5.9818077e-10
4.725745e-10
5.5462185e-10
-6.0271755e-10
-7.1039481e-10
5.7149898e-10
6.7146721e-10
-6.9924509e-10
-8.3840355e-10
6.7012061e-10
8.056381e-10
-8.0332156e-10
-9.9290733e-10
7.7672958e-10
9.6780451e-10
-9.3672207e-10
-1.1592882e-09
9.1302387e-10
1.1431887e-09
-1.0674591e-09
-1.3354759e-09
1.0468838e-09
1.3293722e-09
-1.1670932e-09
-1.5060738e-09
1.1496744e-09
1.5104192e-09
-1.424772e-09
-1.830499e-09
1.4102776e-09
1.8450382e-09
-1.462166e-09
-2.0910744e-09
1.4500506e-09
2.114667e-09
-1.5091899e-09
-2.2425783e-09
1.4985835e-09
2.2731148e-09
-1.7537053e-09
-2.5201808e-09
1.7434594e-09
2.5546275e-09
-1.8924137e-09
-2.6823999e-09
1.8812263e-09
2.7169568e-09
-1.8899204e-09
-2.9160409e-09
1.8765732e-09
2.9464983e-09
-1.9474183e-09
-3.181561e-09
1.9312821e-09
3.2038504e-09
-2.0156085e-09
-3.323845e-09
1.9971846e-09
3.3346991e-09
-2.190068e-09
-4.1648025e-09
2.1702294e-09
4.1623644e-09
-1.770219e-09
-3.6915152e-09
1.7511798e-09
3.6760085e-09
-1.4363e-09
-3.8693818e-09
1.4233795e-09
3.8435406e-09
-2.0165461e-09
-4.0019561e-09
2.015565e-09
3.9705179e-09
-1.9497268e-09
-3.171865e-09
1.9644669e-09
3.1402589e-09
-1.7784474e-09
-4.5718914e-09
1.8090181e-09
4.5440503e-09
-8.5957173e-10
-4.2381121e-09
8.9953954e-10
4.2125847e-09
-1.7036738e-09
-3.9404719e-09
1.7201204e-09
3.902818e-09
-8.595716e-10
-2.6754939e-09
8.1669614e-10
2.6317322e-09
-2.0784862e-09
-3.7610217e-09
2.0238791e-09
3.7530882e-09
)
;

boundaryField
{
    movingWall
    {
        type            calculated;
        value           nonuniform List<scalar> 
16
(
-1.2944679e-09
-1.2789937e-09
-1.294468e-09
-1.2789937e-09
-4.0425971e-09
-4.035928e-09
-4.042597e-09
-4.035928e-09
1.0098095e-09
1.2463501e-09
1.0098097e-09
1.2463501e-09
4.0221314e-09
4.0579954e-09
4.0221314e-09
4.0579953e-09
)
;
    }
    CPLReceiveMD
    {
        type            calculated;
        value           nonuniform List<scalar> 
16
(
5.8864538e-09
3.6559946e-10
-1.5201856e-10
3.3515441e-10
5.4215102e-10
5.9059835e-10
2.769315e-10
5.5063281e-10
1.7005871e-10
1.0913471e-10
4.8332093e-10
1.1580841e-10
4.8661451e-10
-1.0472186e-10
2.4950535e-10
-1.6690969e-10
)
;
    }
    streamwiseIn
    {
        type            cyclic;
    }
    streamwiseOut
    {
        type            cyclic;
    }
    front
    {
        type            cyclic;
    }
    back
    {
        type            cyclic;
    }
}


// ************************************************************************* //
