/*--------------------------------*- C++ -*----------------------------------*\
| =========                 |                                                 |
| \\      /  F ield         | OpenFOAM: The Open Source CFD Toolbox           |
|  \\    /   O peration     | Version:  3.0.x                                 |
|   \\  /    A nd           | Web:      www.OpenFOAM.org                      |
|    \\/     M anipulation  |                                                 |
\*---------------------------------------------------------------------------*/
FoamFile
{
    version     2.0;
    format      ascii;
    class       volScalarField;
    location    "50";
    object      sigmayz;
}
// * * * * * * * * * * * * * * * * * * * * * * * * * * * * * * * * * * * * * //

dimensions      [0 2 -2 0 0 0 0];

internalField   nonuniform List<scalar> 
960
(
5.8371356e-11
-8.6101123e-11
-3.3969303e-11
-1.4448421e-10
-2.6956549e-11
8.9125545e-12
8.0782807e-12
4.0950874e-12
-3.3511168e-11
2.1431642e-11
8.544595e-12
2.8047247e-11
-2.7895459e-11
2.3774998e-11
8.7585201e-12
3.7768535e-11
-1.8939888e-11
2.3038392e-11
9.36735e-12
4.0632051e-11
-1.1611944e-11
2.1118732e-11
9.1010033e-12
3.869525e-11
-6.649664e-12
1.8390868e-11
7.8839762e-12
3.4220272e-11
-3.617219e-12
1.5391901e-11
6.2190444e-12
2.8752639e-11
-1.9348905e-12
1.2564992e-11
4.6240896e-12
2.3265284e-11
-1.1088884e-12
1.004483e-11
3.2757491e-12
1.8286458e-11
-7.7095996e-13
7.8780663e-12
2.1923962e-12
1.4045092e-11
-6.7537667e-13
6.0726299e-12
1.3651375e-12
1.0584533e-11
-6.7749832e-13
4.606283e-12
7.6291634e-13
7.8492964e-12
-6.926835e-13
3.4398286e-12
3.4251186e-13
5.7416057e-12
-6.7621741e-13
2.5313036e-12
6.2072362e-14
4.1508376e-12
-6.3600099e-13
1.8373474e-12
-1.0917738e-13
2.9714991e-12
-5.8781754e-13
1.3186941e-12
-1.9774815e-13
2.1103383e-12
-5.2945607e-13
9.3823993e-13
-2.305524e-13
1.4895198e-12
-4.6490672e-13
6.6223147e-13
-2.2832526e-13
1.0462074e-12
-3.9845401e-13
4.643287e-13
-2.1135619e-13
7.3229861e-13
-3.3388366e-13
3.2353773e-13
-1.8994324e-13
5.1145199e-13
-2.7493536e-13
2.2372996e-13
-1.6479789e-13
3.5654438e-13
-2.2262949e-13
1.5404224e-13
-1.3887559e-13
2.4858764e-13
-1.7754881e-13
1.0587192e-13
-1.1405821e-13
1.7363578e-13
-1.3966525e-13
7.278988e-14
-9.1947214e-14
1.2166287e-13
-1.085567e-13
5.018625e-14
-7.3152871e-14
8.5600701e-14
-8.3512359e-14
3.4840371e-14
-5.7386645e-14
6.0512131e-14
-6.3650454e-14
2.4353581e-14
-4.4406968e-14
4.29798e-14
-4.803329e-14
1.7306325e-14
-3.3954625e-14
3.0711992e-14
-3.6206719e-14
1.237018e-14
-2.566149e-14
2.2266316e-14
-2.6951719e-14
9.0011639e-15
-1.9285158e-14
1.6245868e-14
-1.9970449e-14
6.6156707e-15
-1.432156e-14
1.1928831e-14
-1.4683771e-14
4.7403523e-15
-1.0616843e-14
8.8822159e-15
-1.0890807e-14
3.6345834e-15
-7.7077352e-15
6.4262529e-15
-7.9349695e-15
2.8638543e-15
-5.6557616e-15
4.9366959e-15
-5.6936511e-15
2.0205465e-15
-4.2105479e-15
3.662048e-15
-4.0706497e-15
1.4314184e-15
-2.8052798e-15
2.8757361e-15
-2.9929035e-15
1.0758659e-15
-2.0536824e-15
2.2032821e-15
-2.2387789e-15
9.347628e-16
-1.5831436e-15
1.4485404e-15
-1.4341809e-15
3.2941124e-16
-1.0304603e-15
5.9000229e-16
-1.0472557e-15
2.4917461e-16
-7.0604956e-16
4.4425173e-16
-8.8791892e-16
1.8790298e-16
-5.9399235e-16
3.3439554e-16
-4.4030792e-16
1.4120684e-16
-3.4873926e-16
2.5167558e-16
-3.5858077e-16
1.0611331e-16
-2.9304788e-16
1.8896027e-16
-3.004149e-16
7.9928419e-17
-2.5405731e-16
1.8055378e-15
-2.5919493e-16
6.0006108e-17
-5.9944959e-17
1.0498314e-16
-6.5270425e-17
4.4970399e-17
-3.9097509e-17
7.7930577e-17
-4.7383517e-17
3.4616414e-17
-2.3338489e-17
5.6976144e-17
-3.2835303e-17
2.6377647e-17
-1.4051556e-17
4.117352e-17
-1.8940349e-17
1.9476225e-17
-1.049452e-17
2.8918089e-17
-9.6891743e-18
1.1525646e-17
-5.8720461e-18
2.1708337e-17
-2.6060606e-17
3.8709831e-18
2.1001842e-18
2.0540569e-17
-1.2064578e-17
9.1814784e-19
6.7492826e-18
1.9839647e-17
-1.3848837e-17
3.5633226e-18
9.3302145e-18
1.3149998e-17
-1.2844763e-17
7.5655016e-18
1.0504714e-17
5.4296167e-18
-1.2815575e-17
2.5152166e-17
1.1419292e-17
1.7515796e-18
-1.8229002e-16
9.423704e-18
1.4098496e-17
-3.0468848e-18
-4.4929192e-18
4.6819407e-18
5.0356062e-18
-1.6728373e-16
1.2283558e-18
-8.4122972e-19
-1.591913e-17
6.2270915e-18
2.5379141e-17
4.8874613e-19
-3.8009795e-17
3.0683464e-18
-7.706725e-10
-1.0611642e-11
-2.6013044e-10
7.0769323e-11
3.1194496e-10
-2.0281883e-10
-1.2912925e-10
-2.1789569e-10
9.1645334e-10
-6.1094349e-11
1.2950206e-11
-9.0787273e-11
7.7642113e-10
1.4761395e-11
7.5295874e-11
-1.8846265e-11
6.6547933e-10
5.8094679e-11
9.7596446e-11
2.8152283e-11
5.32977e-10
7.3523824e-11
9.970227e-11
5.2817538e-11
4.0404187e-10
7.4792687e-11
9.2405057e-11
5.9850436e-11
2.9638305e-10
6.8261297e-11
8.0416083e-11
5.7647033e-11
2.1375121e-10
5.8562821e-11
6.695723e-11
5.1178772e-11
1.5263963e-10
4.8343546e-11
5.4117941e-11
4.3243747e-11
1.0837551e-10
3.8933897e-11
4.2868973e-11
3.5406001e-11
7.6803022e-11
3.0872124e-11
3.3480673e-11
2.8407925e-11
5.4538531e-11
2.4241316e-11
2.5887454e-11
2.2498122e-11
3.8930142e-11
1.8912669e-11
1.9884411e-11
1.7665187e-11
2.7942575e-11
1.4690072e-11
1.5218644e-11
1.3784913e-11
2.0085464e-11
1.1366604e-11
1.1630866e-11
1.0699328e-11
1.4435162e-11
8.7604641e-12
8.8804542e-12
8.2634453e-12
1.0409027e-11
6.7280353e-12
6.7668421e-12
6.3611268e-12
7.5239896e-12
5.1508632e-12
5.1322155e-12
4.8822114e-12
5.4555081e-12
3.9308135e-12
3.8683157e-12
3.7311395e-12
3.9741496e-12
2.9879956e-12
2.9040616e-12
2.8388161e-12
2.8979983e-12
2.2623317e-12
2.1857868e-12
2.1512873e-12
2.113125e-12
1.7079883e-12
1.6517405e-12
1.6258595e-12
1.5401715e-12
1.2859713e-12
1.2438384e-12
1.2255309e-12
1.1212391e-12
9.6571821e-13
9.3213746e-13
9.2124936e-13
8.1568346e-13
7.2380955e-13
6.9611855e-13
6.9049246e-13
5.9346935e-13
5.4185774e-13
5.1909134e-13
5.1597002e-13
4.3213583e-13
4.0530624e-13
3.860183e-13
3.8456921e-13
3.1500374e-13
3.0282664e-13
2.8589911e-13
2.8599838e-13
2.2996186e-13
2.2600959e-13
2.1130758e-13
2.1231721e-13
1.6811323e-13
1.683429e-13
1.5581791e-13
1.5748613e-13
1.2312309e-13
1.2480119e-13
1.1488103e-13
1.1683119e-13
9.0213236e-14
9.2241035e-14
8.4816881e-14
8.6573971e-14
6.6232636e-14
6.8376136e-14
6.2562181e-14
6.4048081e-14
4.8802673e-14
5.0941427e-14
4.622829e-14
4.7586392e-14
3.5711705e-14
3.7629857e-14
3.4203408e-14
3.5107437e-14
2.6330616e-14
2.7705185e-14
2.5258284e-14
2.6053929e-14
1.9368603e-14
2.0578852e-14
1.8644215e-14
1.9347059e-14
1.4323515e-14
1.5239536e-14
1.3721979e-14
1.4347415e-14
1.0617346e-14
1.226681e-14
1.026565e-14
1.1992976e-14
7.7378793e-15
7.4807874e-15
7.6096804e-15
7.2891582e-15
5.7206771e-15
6.4033457e-15
5.4651237e-15
6.269821e-15
4.1365645e-15
3.9424806e-15
4.0748961e-15
3.849249e-15
3.0814172e-15
3.3536629e-15
3.2059945e-15
3.2875714e-15
2.3382343e-15
2.9170471e-15
2.3089543e-15
2.8712258e-15
1.7021624e-15
2.5929468e-15
1.6809409e-15
2.5626744e-15
1.3113293e-15
6.8928112e-16
1.2957431e-15
2.3325332e-15
9.775522e-16
5.1167279e-16
9.678771e-16
4.9720518e-16
6.8688777e-16
3.802694e-16
6.8295907e-16
3.6833767e-16
5.9534803e-16
2.818674e-16
4.2644275e-16
2.7307204e-16
3.9324279e-16
2.0537061e-16
3.6557045e-16
2.0451967e-16
2.9257009e-16
3.1195984e-16
2.6549084e-16
3.2101283e-16
2.7001671e-16
2.668014e-16
2.7194309e-16
2.8499865e-16
2.3714894e-16
2.3489603e-16
7.9033408e-17
9.0067983e-17
2.0770627e-16
2.1842597e-16
6.0633077e-17
2.2871721e-16
2.2505931e-17
7.2127241e-17
4.5656302e-17
7.2947796e-17
2.0452888e-17
1.9166765e-16
2.8234814e-17
2.508147e-17
2.2098096e-17
2.6624212e-17
1.3165253e-17
1.7925518e-16
2.9748176e-17
4.1977139e-17
3.0352654e-17
9.3441871e-18
6.4450321e-17
8.3501314e-17
4.9016002e-17
3.4373619e-17
-5.8371356e-11
8.6101123e-11
3.3969303e-11
1.4448421e-10
2.6956549e-11
-8.9125545e-12
-8.0782807e-12
-4.0950874e-12
3.3511168e-11
-2.1431642e-11
-8.544595e-12
-2.8047247e-11
2.7895459e-11
-2.3774998e-11
-8.7585201e-12
-3.7768535e-11
1.8939888e-11
-2.3038392e-11
-9.36735e-12
-4.0632051e-11
1.1611944e-11
-2.1118732e-11
-9.1010033e-12
-3.869525e-11
6.649664e-12
-1.8390868e-11
-7.8839762e-12
-3.4220272e-11
3.617219e-12
-1.5391901e-11
-6.2190444e-12
-2.8752639e-11
1.9348905e-12
-1.2564992e-11
-4.6240896e-12
-2.3265284e-11
1.1088884e-12
-1.004483e-11
-3.2757491e-12
-1.8286458e-11
7.7095996e-13
-7.8780663e-12
-2.1923962e-12
-1.4045092e-11
6.7537667e-13
-6.0726299e-12
-1.3651375e-12
-1.0584533e-11
6.7749832e-13
-4.606283e-12
-7.6291634e-13
-7.8492964e-12
6.926835e-13
-3.4398286e-12
-3.4251186e-13
-5.7416057e-12
6.7621741e-13
-2.5313036e-12
-6.2072362e-14
-4.1508376e-12
6.3600099e-13
-1.8373474e-12
1.0917738e-13
-2.9714991e-12
5.8781754e-13
-1.3186941e-12
1.9774815e-13
-2.1103383e-12
5.2945606e-13
-9.3823993e-13
2.305524e-13
-1.4895198e-12
4.6490672e-13
-6.6223147e-13
2.2832526e-13
-1.0462074e-12
3.9845402e-13
-4.643287e-13
2.1135619e-13
-7.3229861e-13
3.3388366e-13
-3.2353773e-13
1.8994324e-13
-5.1145199e-13
2.7493536e-13
-2.2372996e-13
1.6479789e-13
-3.5654438e-13
2.2262949e-13
-1.5404224e-13
1.3887559e-13
-2.4858764e-13
1.7754881e-13
-1.0587192e-13
1.1405821e-13
-1.7363578e-13
1.3966525e-13
-7.278988e-14
9.1947214e-14
-1.2166287e-13
1.085567e-13
-5.018625e-14
7.3152871e-14
-8.5600701e-14
8.3512359e-14
-3.4840371e-14
5.7386645e-14
-6.0512131e-14
6.3650454e-14
-2.4353581e-14
4.4406968e-14
-4.29798e-14
4.803329e-14
-1.7306325e-14
3.3954625e-14
-3.0711992e-14
3.6206719e-14
-1.237018e-14
2.566149e-14
-2.2266316e-14
2.6951719e-14
-9.0011639e-15
1.9285158e-14
-1.6245868e-14
1.9970449e-14
-6.6156707e-15
1.432156e-14
-1.1928831e-14
1.4683771e-14
-4.7403523e-15
1.0616843e-14
-8.8822159e-15
1.0890807e-14
-3.6345834e-15
7.7077352e-15
-6.4262529e-15
7.9349695e-15
-2.8638543e-15
5.6557616e-15
-4.9366959e-15
5.6936511e-15
-2.0205465e-15
4.2105479e-15
-3.662048e-15
4.0706497e-15
-1.4314184e-15
2.8052798e-15
-2.8757361e-15
2.9929035e-15
-1.0758659e-15
2.0536824e-15
-2.2032821e-15
2.2387789e-15
-9.347628e-16
1.5831436e-15
-1.4485404e-15
1.4341809e-15
-3.2941123e-16
1.0304603e-15
-5.900023e-16
1.0472557e-15
-2.491746e-16
7.0604955e-16
-4.4425173e-16
8.8791893e-16
-1.8790298e-16
5.9399235e-16
-3.3439553e-16
4.4030792e-16
-1.4120684e-16
3.4873926e-16
-2.5167558e-16
3.5858077e-16
-1.061133e-16
2.9304788e-16
-1.8896027e-16
3.004149e-16
-7.9928403e-17
2.5405732e-16
-1.8055379e-15
2.5919494e-16
-6.00061e-17
5.9944964e-17
-1.0498314e-16
6.5270419e-17
-4.497039e-17
3.9097509e-17
-7.7930577e-17
4.7383513e-17
-3.4616421e-17
2.3338492e-17
-5.6976146e-17
3.2835303e-17
-2.6377645e-17
1.4051557e-17
-4.1173515e-17
1.8940349e-17
-1.9476223e-17
1.0494519e-17
-2.8918091e-17
9.6891743e-18
-1.1525644e-17
5.8720465e-18
-2.1708347e-17
2.6060607e-17
-3.870978e-18
-2.1001847e-18
-2.0540571e-17
1.2064578e-17
-9.1814784e-19
-6.7492833e-18
-1.9839644e-17
1.3848835e-17
-3.5633199e-18
-9.3302124e-18
-1.3149997e-17
1.2844762e-17
-7.565503e-18
-1.0504713e-17
-5.4296158e-18
1.2815574e-17
-2.515217e-17
-1.1419291e-17
-1.7515797e-18
1.8229002e-16
-9.4237097e-18
-1.4098496e-17
3.0468856e-18
4.4929155e-18
-4.6819497e-18
-5.0356082e-18
1.6728373e-16
-1.2283581e-18
8.4122155e-19
1.5919126e-17
-6.2270896e-18
-2.5379142e-17
-4.887574e-19
3.8009793e-17
-3.0683452e-18
7.706725e-10
1.0611642e-11
2.6013044e-10
-7.0769323e-11
-3.1194496e-10
2.0281883e-10
1.2912925e-10
2.1789569e-10
-9.1645334e-10
6.1094349e-11
-1.2950206e-11
9.0787273e-11
-7.7642113e-10
-1.4761395e-11
-7.5295874e-11
1.8846265e-11
-6.6547933e-10
-5.8094679e-11
-9.7596446e-11
-2.8152283e-11
-5.32977e-10
-7.3523824e-11
-9.970227e-11
-5.2817538e-11
-4.0404187e-10
-7.4792687e-11
-9.2405057e-11
-5.9850436e-11
-2.9638305e-10
-6.8261297e-11
-8.0416083e-11
-5.7647033e-11
-2.1375121e-10
-5.8562821e-11
-6.695723e-11
-5.1178772e-11
-1.5263963e-10
-4.8343546e-11
-5.4117941e-11
-4.3243747e-11
-1.0837551e-10
-3.8933897e-11
-4.2868973e-11
-3.5406001e-11
-7.6803022e-11
-3.0872124e-11
-3.3480673e-11
-2.8407925e-11
-5.4538531e-11
-2.4241316e-11
-2.5887454e-11
-2.2498122e-11
-3.8930142e-11
-1.8912669e-11
-1.9884411e-11
-1.7665187e-11
-2.7942575e-11
-1.4690072e-11
-1.5218644e-11
-1.3784913e-11
-2.0085464e-11
-1.1366604e-11
-1.1630866e-11
-1.0699328e-11
-1.4435162e-11
-8.7604641e-12
-8.8804542e-12
-8.2634453e-12
-1.0409027e-11
-6.7280353e-12
-6.7668421e-12
-6.3611268e-12
-7.5239896e-12
-5.1508632e-12
-5.1322155e-12
-4.8822114e-12
-5.4555081e-12
-3.9308135e-12
-3.8683157e-12
-3.7311395e-12
-3.9741496e-12
-2.9879956e-12
-2.9040616e-12
-2.8388161e-12
-2.8979983e-12
-2.2623317e-12
-2.1857868e-12
-2.1512873e-12
-2.113125e-12
-1.7079883e-12
-1.6517405e-12
-1.6258595e-12
-1.5401715e-12
-1.2859713e-12
-1.2438384e-12
-1.2255309e-12
-1.1212391e-12
-9.6571821e-13
-9.3213746e-13
-9.2124936e-13
-8.1568346e-13
-7.2380955e-13
-6.9611855e-13
-6.9049246e-13
-5.9346935e-13
-5.4185774e-13
-5.1909134e-13
-5.1597002e-13
-4.3213583e-13
-4.0530624e-13
-3.860183e-13
-3.8456921e-13
-3.1500374e-13
-3.0282664e-13
-2.8589911e-13
-2.8599838e-13
-2.2996186e-13
-2.2600959e-13
-2.1130758e-13
-2.1231721e-13
-1.6811323e-13
-1.683429e-13
-1.5581791e-13
-1.5748613e-13
-1.2312309e-13
-1.2480119e-13
-1.1488103e-13
-1.1683119e-13
-9.0213236e-14
-9.2241035e-14
-8.4816881e-14
-8.6573971e-14
-6.6232636e-14
-6.8376136e-14
-6.2562181e-14
-6.4048081e-14
-4.8802673e-14
-5.0941427e-14
-4.622829e-14
-4.7586392e-14
-3.5711705e-14
-3.7629857e-14
-3.4203408e-14
-3.5107437e-14
-2.6330616e-14
-2.7705185e-14
-2.5258284e-14
-2.6053929e-14
-1.9368603e-14
-2.0578852e-14
-1.8644215e-14
-1.9347059e-14
-1.4323515e-14
-1.5239536e-14
-1.3721979e-14
-1.4347415e-14
-1.0617346e-14
-1.226681e-14
-1.026565e-14
-1.1992976e-14
-7.7378793e-15
-7.4807874e-15
-7.6096804e-15
-7.2891582e-15
-5.7206771e-15
-6.4033457e-15
-5.4651237e-15
-6.269821e-15
-4.1365645e-15
-3.9424806e-15
-4.0748961e-15
-3.849249e-15
-3.0814172e-15
-3.3536629e-15
-3.2059945e-15
-3.2875714e-15
-2.3382343e-15
-2.9170471e-15
-2.3089543e-15
-2.8712258e-15
-1.7021624e-15
-2.5929469e-15
-1.6809409e-15
-2.5626744e-15
-1.3113293e-15
-6.8928112e-16
-1.2957431e-15
-2.3325332e-15
-9.7755219e-16
-5.1167277e-16
-9.678771e-16
-4.9720518e-16
-6.8688776e-16
-3.8026939e-16
-6.8295907e-16
-3.6833769e-16
-5.9534804e-16
-2.818674e-16
-4.2644276e-16
-2.7307205e-16
-3.9324279e-16
-2.053706e-16
-3.6557045e-16
-2.0451966e-16
-2.9257009e-16
-3.1195984e-16
-2.6549083e-16
-3.2101283e-16
-2.7001671e-16
-2.6680141e-16
-2.7194309e-16
-2.8499866e-16
-2.3714894e-16
-2.3489603e-16
-7.903341e-17
-9.0067983e-17
-2.0770627e-16
-2.1842597e-16
-6.0633078e-17
-2.2871721e-16
-2.2505931e-17
-7.2127242e-17
-4.5656303e-17
-7.2947793e-17
-2.0452891e-17
-1.9166765e-16
-2.8234814e-17
-2.5081466e-17
-2.2098097e-17
-2.6624217e-17
-1.3165253e-17
-1.7925517e-16
-2.9748174e-17
-4.1977146e-17
-3.0352653e-17
-9.3441812e-18
-6.445032e-17
-8.3501316e-17
-4.9016e-17
-3.4373611e-17
)
;

boundaryField
{
    movingWall
    {
        type            calculated;
        value           nonuniform List<scalar> 
16
(
2.2511589e-17
1.0774677e-16
-2.251159e-17
-1.0774677e-16
1.8424944e-18
1.146948e-16
-1.8425088e-18
-1.1469479e-16
-4.8920812e-17
6.0829189e-17
4.8920812e-17
-6.0829186e-17
-1.9904475e-18
5.7697026e-17
1.9904493e-18
-5.7697018e-17
)
;
    }
    CPLReceiveMD
    {
        type            calculated;
        value           nonuniform List<scalar> 
16
(
1.2700473e-10
-9.2325328e-10
-1.2700473e-10
9.2325328e-10
-1.6768771e-10
2.5930151e-10
1.6768771e-10
-2.5930151e-10
-7.4000543e-11
-3.1158588e-10
7.4000543e-11
3.1158588e-10
-2.740392e-10
4.2020143e-10
2.740392e-10
-4.2020143e-10
)
;
    }
    streamwiseIn
    {
        type            cyclic;
    }
    streamwiseOut
    {
        type            cyclic;
    }
    front
    {
        type            cyclic;
    }
    back
    {
        type            cyclic;
    }
}


// ************************************************************************* //
