/*--------------------------------*- C++ -*----------------------------------*\
| =========                 |                                                 |
| \\      /  F ield         | OpenFOAM: The Open Source CFD Toolbox           |
|  \\    /   O peration     | Version:  3.0.x                                 |
|   \\  /    A nd           | Web:      www.OpenFOAM.org                      |
|    \\/     M anipulation  |                                                 |
\*---------------------------------------------------------------------------*/
FoamFile
{
    version     2.0;
    format      ascii;
    class       volScalarField;
    location    "50";
    object      sigmaxz;
}
// * * * * * * * * * * * * * * * * * * * * * * * * * * * * * * * * * * * * * //

dimensions      [0 2 -2 0 0 0 0];

internalField   nonuniform List<scalar> 
960
(
6.6463496e-12
-1.3169504e-11
-2.3289751e-11
2.9812906e-11
7.8517708e-12
-2.8770148e-11
-2.4495172e-11
1.2126746e-11
7.7504672e-12
-2.6086962e-11
-7.7504669e-12
2.6086962e-11
7.0870004e-12
-6.916004e-12
-2.3730402e-11
6.9160043e-12
2.2682206e-11
-4.8982352e-12
-6.0388048e-12
4.8982352e-12
4.9064739e-12
-3.3930565e-12
-4.9064741e-12
3.3930565e-12
3.8473827e-12
-2.3163644e-12
-3.8473827e-12
2.3163645e-12
4.5905176e-12
-3.2448865e-12
-6.2548577e-12
3.2448865e-12
3.8369628e-12
-1.0898626e-12
-3.8369628e-12
2.7542028e-12
3.2477022e-12
-7.6291315e-13
-3.2477022e-12
2.4272533e-12
1.1375791e-12
-2.2075899e-12
-2.8019192e-12
2.2075899e-12
8.0842314e-13
-2.0576056e-12
-8.0842312e-13
3.9326545e-13
5.7035073e-13
-2.8845937e-13
-5.7035071e-13
2.8845937e-13
4.0055292e-13
-2.1316499e-13
-4.0055292e-13
2.1316497e-13
2.8076084e-13
-1.5884122e-13
-2.8076082e-13
1.5884122e-13
1.9673536e-13
-1.2061326e-13
-1.9673536e-13
1.206133e-13
1.3799201e-13
-9.2726463e-14
-1.3799199e-13
9.2726463e-14
9.7061015e-14
-7.1616321e-14
-9.7061015e-14
7.1616339e-14
6.8569005e-14
-5.5149802e-14
-6.8569005e-14
5.5149812e-14
4.8699949e-14
-4.1855203e-14
-4.8699949e-14
4.1855212e-14
3.4815568e-14
-3.160346e-14
-3.4815573e-14
3.1603464e-14
2.5031331e-14
-2.3734329e-14
-2.5031331e-14
2.3734329e-14
1.8081994e-14
-1.7736479e-14
-1.8081994e-14
1.7736479e-14
1.3117988e-14
-1.3185652e-14
-1.3117986e-14
1.3185652e-14
9.5452983e-15
-9.7397596e-15
-9.5452983e-15
9.7397618e-15
6.9593703e-15
-7.1754724e-15
-6.9593726e-15
7.1754747e-15
5.0836959e-15
-5.2808348e-15
-5.0837005e-15
5.2808371e-15
3.7239716e-15
-3.8843965e-15
-3.7239716e-15
3.8843988e-15
2.7387548e-15
-2.8558419e-15
-2.7387548e-15
2.8558419e-15
2.0235049e-15
-2.0982201e-15
-2.0235049e-15
2.0982246e-15
1.503247e-15
-1.5406416e-15
-1.503247e-15
1.5406507e-15
1.1206063e-15
-1.1309636e-15
-1.1206063e-15
1.1309636e-15
8.3545252e-16
-8.3017853e-16
-8.3543433e-16
8.3017853e-16
6.2212577e-16
-6.0942684e-16
-6.2212577e-16
6.0942684e-16
4.6748765e-16
-4.4744574e-16
-4.6748765e-16
4.4748212e-16
3.5150763e-16
-3.2860087e-16
-3.5143488e-16
3.2867363e-16
2.6354891e-16
-2.41373e-16
-2.6354891e-16
2.4151851e-16
1.9718333e-16
-1.7757537e-16
-1.9703783e-16
1.7757537e-16
1.4721282e-16
-1.3066586e-16
-1.4692181e-16
1.3066586e-16
1.0965823e-16
-9.595209e-17
-1.0965823e-16
9.6243099e-17
8.1547987e-17
-7.0291382e-17
-8.1547987e-17
7.1455416e-17
6.0501882e-17
-5.2203285e-17
-6.0501882e-17
5.2203285e-17
4.4634179e-17
-3.7583253e-17
-4.4634179e-17
3.9911321e-17
3.1501471e-17
-2.9129431e-17
-3.2665505e-17
2.9129431e-17
2.3758053e-17
-2.1069996e-17
-2.4922087e-17
2.223403e-17
1.9554683e-17
-1.7448051e-17
-1.9554683e-17
1.7448051e-17
1.2424552e-17
-1.1636859e-17
-1.2424552e-17
1.6292994e-17
1.1249236e-17
-8.524823e-18
-8.9211679e-18
8.524823e-18
6.7902533e-18
-7.9059596e-18
-6.7902533e-18
7.9059596e-18
5.1928416e-18
-1.4635475e-18
-5.1928416e-18
1.0775819e-17
4.4110505e-18
-5.7777441e-18
-4.4110505e-18
5.7777441e-18
2.6269632e-18
4.1544445e-18
-2.6269632e-18
5.1578273e-18
2.1057681e-19
-2.8755438e-18
-2.1057681e-19
2.8755438e-18
-2.1409557e-18
-4.1703158e-19
2.1409557e-18
4.1703158e-19
-2.2051146e-18
2.9652104e-18
1.1517386e-17
-2.9652104e-18
-1.6027466e-18
5.466668e-18
1.6027466e-18
-5.466668e-18
1.8122133e-17
9.0720142e-18
5.024106e-19
-9.0720142e-18
1.5396451e-18
1.3014729e-17
-1.5396451e-18
-1.3014729e-17
8.914787e-19
1.1473052e-17
-8.914787e-19
-1.1473052e-17
-2.4146023e-19
4.4999593e-18
2.4146023e-19
-4.4999593e-18
-2.7011773e-11
1.6069886e-10
2.7011773e-11
-1.6069886e-10
-1.1067594e-11
4.0668439e-10
1.1067594e-11
-4.0668439e-10
-9.4158166e-12
3.8380801e-10
2.6059218e-11
-3.6716461e-10
-7.4780617e-12
2.9815367e-10
2.4121463e-11
-2.9815367e-10
-2.1871247e-11
2.2737385e-10
5.2278455e-12
-2.2737385e-10
-3.717798e-12
1.4515186e-10
3.717798e-12
-1.4515186e-10
-2.6259792e-12
1.0380344e-10
2.6259792e-12
-1.2044684e-10
-3.5067664e-12
7.2832535e-11
3.5067663e-12
-7.1168195e-11
-2.9596613e-12
4.7333736e-11
2.9596613e-12
-4.7333736e-11
-9.1695456e-13
3.0788089e-11
2.5812947e-12
-3.0788089e-11
-2.3199038e-12
2.0336647e-11
2.3199038e-12
-2.0336647e-11
-2.1380037e-12
1.3427429e-11
4.7366355e-13
-1.3427429e-11
-3.4536955e-13
9.4277079e-12
2.0097097e-12
-9.4277078e-12
-2.5389276e-13
4.573085e-12
2.5389276e-13
-6.2374251e-12
-1.8794178e-13
3.5693023e-12
1.8794177e-13
-3.5693023e-12
-1.3962033e-13
2.9071564e-12
1.3962033e-13
-2.9071564e-12
-1.03714e-13
8.1201774e-13
1.0371402e-13
-8.1201774e-13
-7.6907178e-14
5.3231382e-13
1.7412473e-12
-5.3231382e-13
-5.7439308e-14
2.0144473e-12
5.7439317e-14
-2.0144472e-12
-4.3039786e-14
1.8952769e-12
4.3039786e-14
-1.8952769e-12
-3.2276549e-14
1.509997e-13
3.2276549e-14
-1.5099971e-13
-2.4245858e-14
9.7046355e-14
2.4245858e-14
-2.6348038e-13
-1.8290083e-14
6.1999733e-14
1.8290088e-14
-2.2843375e-13
-1.390117e-14
3.9419297e-14
1.3901168e-14
-3.9419297e-14
-1.0680337e-14
2.4985272e-14
1.0680339e-14
-2.4985274e-14
-8.2987362e-15
1.5782796e-14
8.2987385e-15
-1.5782796e-14
-6.4830243e-15
1.0026046e-14
6.4830266e-15
-1.0026048e-14
-5.0382722e-15
6.4685429e-15
5.0382722e-15
-6.4685429e-15
-1.7029183e-13
4.2472246e-15
3.8578252e-15
-4.2472246e-15
-2.8947535e-15
2.8252457e-15
2.8947581e-15
-2.8252457e-15
-2.127045e-15
1.8952e-15
2.127045e-15
-1.8952091e-15
-1.5429964e-15
1.2787525e-15
1.5430146e-15
-1.2787525e-15
-1.1252802e-15
8.6680999e-16
1.1252802e-15
-8.6680999e-16
-8.2798069e-16
5.8997613e-16
8.2794431e-16
-5.8997613e-16
-5.798641e-16
4.0323949e-16
5.798641e-16
-4.0323949e-16
-4.019886e-16
2.767821e-16
4.019886e-16
-2.767821e-16
-2.797641e-16
1.9092744e-16
2.797641e-16
-1.9078194e-16
-1.9566453e-16
1.3238761e-16
1.9551902e-16
-1.3238761e-16
-1.3712665e-16
9.2270519e-17
1.3712665e-16
-9.2270519e-17
-9.6534891e-17
6.4687409e-17
9.6534891e-17
-6.4687409e-17
-6.8124788e-17
4.5587408e-17
6.8124788e-17
-4.5587408e-17
-4.8247357e-17
3.2383299e-17
4.8247357e-17
-3.2383299e-17
-3.447867e-17
2.1966699e-17
3.5642704e-17
-2.3130733e-17
-2.4754463e-17
1.5679804e-17
2.4754463e-17
-1.6843838e-17
-1.7824667e-17
1.258351e-17
1.8988701e-17
-1.258351e-17
-1.3208203e-17
9.4657349e-18
1.5536271e-17
-9.4657349e-18
-1.019648e-17
4.9079671e-18
1.2524548e-17
-7.236035e-18
-1.0222416e-17
5.5382416e-18
7.8943481e-18
-3.2101737e-18
-6.5508711e-18
4.7980646e-18
6.5508711e-18
-4.7980646e-18
-4.8877409e-18
4.5482721e-18
9.5438768e-18
-4.5482721e-18
-4.3345792e-18
4.1753451e-18
4.3345792e-18
-4.1753451e-18
-4.6733157e-18
1.769152e-18
4.6733157e-18
-1.769152e-18
-6.615792e-18
1.5456744e-18
6.615792e-18
-1.5456744e-18
-9.2587359e-18
2.2545718e-18
9.2587359e-18
-2.2545718e-18
-1.2060153e-17
1.2954073e-17
1.2060153e-17
-3.6418009e-18
-1.1851965e-17
2.5757736e-17
-6.7725782e-18
-7.1331924e-18
-3.0891464e-17
9.475329e-18
-6.3576236e-18
-9.475329e-18
6.8109204e-18
2.7718659e-17
-6.8109204e-18
-2.7718659e-17
-8.7887688e-18
7.2243938e-18
8.7887688e-18
-7.2243938e-18
-3.5906345e-18
5.0525596e-18
3.5906345e-18
-5.0525596e-18
-6.6463495e-12
1.3169504e-11
2.3289751e-11
-2.9812906e-11
-7.8517708e-12
2.8770148e-11
2.4495172e-11
-1.2126747e-11
-7.7504669e-12
2.6086962e-11
7.7504669e-12
-2.6086962e-11
-7.0870004e-12
6.916004e-12
2.3730402e-11
-6.916004e-12
-2.2682206e-11
4.8982354e-12
6.0388048e-12
-4.8982354e-12
-4.9064741e-12
3.3930565e-12
4.9064741e-12
-3.3930565e-12
-3.8473827e-12
2.3163645e-12
3.8473827e-12
-2.3163645e-12
-4.5905176e-12
3.2448865e-12
6.2548578e-12
-3.2448865e-12
-3.8369627e-12
1.0898626e-12
3.8369628e-12
-2.7542027e-12
-3.2477022e-12
7.6291315e-13
3.2477022e-12
-2.4272533e-12
-1.1375791e-12
2.2075899e-12
2.8019192e-12
-2.2075899e-12
-8.0842312e-13
2.0576056e-12
8.0842312e-13
-3.9326543e-13
-5.7035071e-13
2.8845939e-13
5.7035071e-13
-2.8845939e-13
-4.0055292e-13
2.1316501e-13
4.0055292e-13
-2.1316499e-13
-2.8076082e-13
1.5884124e-13
2.8076084e-13
-1.5884122e-13
-1.9673536e-13
1.2061328e-13
1.9673536e-13
-1.206133e-13
-1.3799202e-13
9.2726445e-14
1.3799201e-13
-9.2726463e-14
-9.7061015e-14
7.161633e-14
9.7061015e-14
-7.1616339e-14
-6.8569005e-14
5.5149813e-14
6.8569005e-14
-5.5149813e-14
-4.8699949e-14
4.1855212e-14
4.8699949e-14
-4.1855212e-14
-3.4815573e-14
3.1603469e-14
3.4815573e-14
-3.1603464e-14
-2.5031331e-14
2.3734334e-14
2.5031331e-14
-2.3734329e-14
-1.8081994e-14
1.7736479e-14
1.8081994e-14
-1.7736479e-14
-1.3117986e-14
1.3185652e-14
1.3117986e-14
-1.3185652e-14
-9.5452983e-15
9.7397618e-15
9.5452983e-15
-9.7397618e-15
-6.9593726e-15
7.1754747e-15
6.9593726e-15
-7.1754747e-15
-5.0836982e-15
5.2808371e-15
5.0836982e-15
-5.2808371e-15
-3.7239716e-15
3.8843965e-15
3.7239716e-15
-3.8844011e-15
-2.7387548e-15
2.8558419e-15
2.7387548e-15
-2.8558419e-15
-2.0235004e-15
2.0982201e-15
2.0235049e-15
-2.0982292e-15
-1.503247e-15
1.5406507e-15
1.503247e-15
-1.5406507e-15
-1.1206063e-15
1.1309636e-15
1.1206063e-15
-1.1309636e-15
-8.3543433e-16
8.3017853e-16
8.3543433e-16
-8.3017853e-16
-6.2212577e-16
6.0942684e-16
6.2212577e-16
-6.0942684e-16
-4.6748765e-16
4.4748212e-16
4.6748765e-16
-4.4748212e-16
-3.5143488e-16
3.2860087e-16
3.5143488e-16
-3.2867363e-16
-2.6340341e-16
2.4151851e-16
2.6354891e-16
-2.4166401e-16
-1.9718333e-16
1.7757537e-16
1.9718333e-16
-1.7757537e-16
-1.4721282e-16
1.3066586e-16
1.4721282e-16
-1.3066586e-16
-1.0965823e-16
9.6243099e-17
1.0965823e-16
-9.6243099e-17
-8.1547986e-17
7.0873399e-17
8.1547986e-17
-7.1455416e-17
-6.050188e-17
5.2203284e-17
6.050188e-17
-5.2785301e-17
-4.4634178e-17
3.8747285e-17
4.4634178e-17
-3.9911319e-17
-3.2665503e-17
3.0293463e-17
3.2665503e-17
-2.9129429e-17
-2.375805e-17
2.223403e-17
2.375805e-17
-2.223403e-17
-1.722661e-17
1.5119982e-17
1.722661e-17
-1.744805e-17
-1.2424547e-17
1.3964925e-17
1.2424547e-17
-1.6292993e-17
-8.9211631e-18
1.085289e-17
8.9211631e-18
-1.085289e-17
-6.7902497e-18
7.9059594e-18
6.7902497e-18
-7.9059594e-18
-5.1928373e-18
6.1196827e-18
5.1928373e-18
-1.0775819e-17
-4.4110458e-18
5.7777437e-18
4.4110458e-18
-5.7777437e-18
-2.6269582e-18
5.1578268e-18
2.6269582e-18
-5.1578268e-18
-2.1057165e-19
2.8755432e-18
2.1057165e-19
-2.8755432e-18
2.1409611e-18
4.1703073e-19
-2.1409611e-18
-4.1703073e-19
2.2051202e-18
-1.2277483e-17
-2.2051202e-18
2.9652108e-18
1.6027512e-18
-5.4666682e-18
-1.6027512e-18
2.4091212e-17
1.9126959e-17
-9.0720141e-18
-5.0241548e-19
9.0720141e-18
-1.5396416e-18
-3.1639273e-17
1.5396416e-18
3.1639273e-17
-8.9147668e-19
-1.1473052e-17
8.9147668e-19
1.1473052e-17
2.4146121e-19
-4.4999594e-18
-2.4146121e-19
4.4999594e-18
2.7011773e-11
-1.6069886e-10
-2.7011773e-11
1.6069886e-10
1.1067594e-11
-4.0668439e-10
-1.1067594e-11
4.0668439e-10
9.4158163e-12
-3.8380801e-10
-2.6059218e-11
3.6716461e-10
7.478062e-12
-2.9815367e-10
-2.4121463e-11
2.9815367e-10
2.1871247e-11
-2.2737385e-10
-5.2278455e-12
2.2737385e-10
3.7177982e-12
-1.4515186e-10
-3.717798e-12
1.4515186e-10
2.6259793e-12
-1.0380344e-10
-2.6259792e-12
1.2044684e-10
3.5067664e-12
-7.2832535e-11
-3.5067664e-12
7.1168195e-11
2.9596613e-12
-4.7333736e-11
-2.9596613e-12
4.7333736e-11
9.1695456e-13
-3.0788089e-11
-2.5812947e-12
3.0788089e-11
2.3199038e-12
-2.0336647e-11
-2.3199038e-12
2.0336647e-11
2.1380037e-12
-1.3427429e-11
-4.7366355e-13
1.3427429e-11
3.4536955e-13
-9.4277079e-12
-2.0097097e-12
9.4277079e-12
2.5389276e-13
-4.573085e-12
-2.5389274e-13
6.2374251e-12
1.8794178e-13
-3.5693023e-12
-1.8794177e-13
3.5693023e-12
1.3962033e-13
-2.9071564e-12
-1.3962033e-13
2.9071564e-12
1.0371402e-13
-8.1201773e-13
-1.0371404e-13
8.1201774e-13
7.6907187e-14
-5.3231382e-13
-1.7412473e-12
5.3231382e-13
5.7439317e-14
-2.0144473e-12
-5.7439317e-14
2.0144472e-12
4.3039786e-14
-1.8952769e-12
-4.3039786e-14
1.8952769e-12
3.2276553e-14
-1.5099971e-13
-3.2276549e-14
1.5099971e-13
2.4245858e-14
-9.7046359e-14
-2.4245858e-14
2.6348038e-13
1.8290083e-14
-6.1999733e-14
-1.8290088e-14
2.2843375e-13
1.390117e-14
-3.9419297e-14
-1.3901168e-14
3.9419297e-14
1.0680337e-14
-2.4985274e-14
-1.0680339e-14
2.4985274e-14
8.2987385e-15
-1.5782796e-14
-8.2987385e-15
1.5782798e-14
6.4830266e-15
-1.0026048e-14
-6.4830243e-15
1.0026048e-14
5.0382722e-15
-6.4685406e-15
-5.0382722e-15
6.4685451e-15
1.7029183e-13
-4.2472246e-15
-3.8578252e-15
4.2472292e-15
2.8947535e-15
-2.8252411e-15
-2.8947535e-15
2.8252502e-15
2.1270541e-15
-1.8952091e-15
-2.1270359e-15
1.8952091e-15
1.5429964e-15
-1.2787525e-15
-1.5430146e-15
1.2787525e-15
1.1252802e-15
-8.6680999e-16
-1.1252802e-15
8.6680999e-16
8.2798069e-16
-5.8997613e-16
-8.2790794e-16
5.8997613e-16
5.798641e-16
-4.0323949e-16
-5.798641e-16
4.0327587e-16
4.019886e-16
-2.767821e-16
-4.0191584e-16
2.767821e-16
2.7961859e-16
-1.9092744e-16
-2.797641e-16
1.9092744e-16
1.9566453e-16
-1.3238761e-16
-1.9551902e-16
1.3238761e-16
1.3712665e-16
-9.2270519e-17
-1.3741766e-16
9.2270519e-17
9.6534891e-17
-6.4687409e-17
-9.6534891e-17
6.4978418e-17
6.8124788e-17
-4.5587408e-17
-6.8124788e-17
4.5587408e-17
4.8247374e-17
-3.2383299e-17
-4.7665357e-17
3.2965316e-17
3.447867e-17
-2.3130733e-17
-3.5642704e-17
2.3130733e-17
2.5918497e-17
-1.6843838e-17
-2.4754463e-17
1.6843838e-17
1.7824667e-17
-1.258351e-17
-1.7824667e-17
1.3747544e-17
1.320822e-17
-7.1376669e-18
-1.320822e-17
9.4657349e-18
1.2524548e-17
-7.236035e-18
-1.2524548e-17
9.564103e-18
7.8943481e-18
-5.5382416e-18
-7.8943481e-18
5.5382416e-18
1.120701e-17
-4.7980663e-18
-6.5508744e-18
4.7980663e-18
9.5438818e-18
-4.5482738e-18
-4.8877459e-18
9.2044097e-18
4.3345842e-18
-4.1753468e-18
-4.3345842e-18
4.1753468e-18
4.6733223e-18
-1.7691536e-18
-4.6733223e-18
1.7691536e-18
6.615797e-18
-1.5456744e-18
-6.615797e-18
1.5456744e-18
9.2587409e-18
-2.2545718e-18
-9.2587409e-18
2.2545718e-18
1.2060158e-17
-3.6418009e-18
-1.2060158e-17
3.6418009e-18
1.185197e-17
-7.1331928e-18
6.7725735e-18
7.1331928e-18
1.2266924e-17
-9.4753293e-18
6.3576194e-18
9.4753293e-18
1.1813627e-17
-9.094115e-18
6.8109168e-18
9.094115e-18
8.788771e-18
-7.224394e-18
-8.788771e-18
2.5848938e-17
3.590635e-18
-5.0525597e-18
-3.590635e-18
5.0525597e-18
)
;

boundaryField
{
    movingWall
    {
        type            calculated;
        value           nonuniform List<scalar> 
16
(
-2.4146023e-19
-3.5906345e-18
2.4146121e-19
3.590635e-18
4.4999593e-18
5.0525596e-18
-4.4999594e-18
-5.0525597e-18
2.4146023e-19
3.5906345e-18
-2.4146121e-19
-3.590635e-18
-4.4999593e-18
-5.0525596e-18
4.4999594e-18
5.0525597e-18
)
;
    }
    CPLReceiveMD
    {
        type            calculated;
        value           nonuniform List<scalar> 
16
(
6.6463496e-12
-2.7011773e-11
-6.6463495e-12
2.7011773e-11
-1.3169504e-11
1.6069886e-10
1.3169504e-11
-1.6069886e-10
-2.3289751e-11
2.7011773e-11
2.3289751e-11
-2.7011773e-11
2.9812906e-11
-1.6069886e-10
-2.9812906e-11
1.6069886e-10
)
;
    }
    streamwiseIn
    {
        type            cyclic;
    }
    streamwiseOut
    {
        type            cyclic;
    }
    front
    {
        type            cyclic;
    }
    back
    {
        type            cyclic;
    }
}


// ************************************************************************* //
