/*--------------------------------*- C++ -*----------------------------------*\
| =========                 |                                                 |
| \\      /  F ield         | OpenFOAM: The Open Source CFD Toolbox           |
|  \\    /   O peration     | Version:  3.0.x                                 |
|   \\  /    A nd           | Web:      www.OpenFOAM.org                      |
|    \\/     M anipulation  |                                                 |
\*---------------------------------------------------------------------------*/
FoamFile
{
    version     2.0;
    format      ascii;
    class       volScalarField;
    location    "50";
    object      sigmaxx;
}
// * * * * * * * * * * * * * * * * * * * * * * * * * * * * * * * * * * * * * //

dimensions      [0 2 -2 0 0 0 0];

internalField   nonuniform List<scalar> 
960
(
-1.3945768e-09
-5.1360654e-09
5.4586453e-09
5.6500409e-09
-5.9443648e-09
-7.0297642e-09
6.8615566e-09
7.2158708e-09
-2.4652384e-09
-2.6060619e-09
2.18391e-09
2.8133705e-09
4.7710239e-09
5.026477e-09
-5.044504e-09
-4.7364582e-09
1.0982203e-08
1.1563577e-08
-1.098158e-08
-1.1293889e-08
1.1777391e-08
1.2921315e-08
-1.1812078e-08
-1.2722634e-08
8.6194372e-09
1.0027436e-08
-8.704452e-09
-9.8967196e-09
4.0516513e-09
5.3314685e-09
-4.1728755e-09
-5.2604152e-09
-2.4547165e-10
7.3862571e-10
1.0313177e-10
-7.1506454e-10
-3.3859578e-09
-2.7420188e-09
3.236137e-09
2.7316391e-09
-5.1533702e-09
-4.8171657e-09
5.0079675e-09
4.7854454e-09
-5.7253708e-09
-5.6262633e-09
5.5929103e-09
5.5833827e-09
-5.4523967e-09
-5.5109195e-09
5.3374421e-09
5.4641522e-09
-4.6981283e-09
-4.8458173e-09
4.6017777e-09
4.799729e-09
-3.7752837e-09
-3.9597803e-09
3.6962067e-09
3.9167688e-09
-2.8937002e-09
-3.0837906e-09
2.8293934e-09
3.044721e-09
-2.1707045e-09
-2.3508674e-09
2.1183537e-09
2.3156417e-09
-1.6626656e-09
-1.8311246e-09
1.6193686e-09
1.7990947e-09
-1.3752476e-09
-1.533418e-09
1.3382386e-09
1.5036693e-09
-1.2838764e-09
-1.446349e-09
1.2508494e-09
1.4179457e-09
-1.3615091e-09
-1.5441786e-09
1.3307209e-09
1.516326e-09
-1.5879626e-09
-1.806499e-09
1.5581095e-09
1.7785591e-09
-1.9445054e-09
-2.218128e-09
1.9146201e-09
2.1896073e-09
-2.4240722e-09
-2.7756606e-09
2.393511e-09
2.7462161e-09
-3.0292661e-09
-3.4865566e-09
2.9976453e-09
3.455974e-09
-3.7678864e-09
-4.3664157e-09
3.7350059e-09
4.3345778e-09
-4.6530716e-09
-5.4379727e-09
4.6188619e-09
5.4048334e-09
-5.6979293e-09
-6.7272554e-09
5.6624224e-09
6.6928193e-09
-6.9115519e-09
-8.2606879e-09
6.8748661e-09
8.2249994e-09
-8.2948354e-09
-1.0059115e-08
8.2571679e-09
1.0022255e-08
-9.8380857e-09
-1.2144006e-08
9.7997131e-09
1.2106089e-08
-1.1509995e-08
-1.4507855e-08
1.147128e-08
1.4469042e-08
-1.3250276e-08
-1.71338e-08
1.3211678e-08
1.709431e-08
-1.4977245e-08
-1.9975946e-08
1.4939331e-08
1.9936075e-08
-1.6570686e-08
-2.2950256e-08
1.6534132e-08
2.291039e-08
-1.7871019e-08
-2.5934453e-08
1.7836614e-08
2.5895074e-08
-1.867755e-08
-2.8766138e-08
1.8646182e-08
2.8727833e-08
-1.8739703e-08
-3.1215148e-08
1.8712325e-08
3.1178599e-08
-1.7866049e-08
-3.2992742e-08
1.7843634e-08
3.29587e-08
-1.5778745e-08
-3.3840313e-08
1.5762205e-08
3.3809537e-08
-1.2301504e-08
-3.3378578e-08
1.2291593e-08
3.3351789e-08
-7.3725234e-09
-3.1137178e-08
7.369723e-09
3.1114958e-08
-8.5908314e-10
-2.7031307e-08
8.6347334e-10
2.7013983e-08
6.9847845e-09
-2.086521e-08
-6.9736447e-09
2.0852795e-08
1.5818252e-08
-1.2371362e-08
-1.5801408e-08
1.2363459e-08
2.5009578e-08
-1.3405619e-09
-2.4988704e-08
1.3363401e-09
3.3641326e-08
1.1692719e-08
-3.361865e-08
-1.1694471e-08
4.1193646e-08
2.6098732e-08
-4.1171747e-08
-2.6099458e-08
4.6465925e-08
4.0919447e-08
-4.6447459e-08
-4.0920574e-08
4.872959e-08
5.5312488e-08
-4.8717254e-08
-5.5315121e-08
4.7777216e-08
6.6792791e-08
-4.7771728e-08
-6.6797257e-08
4.1534296e-08
7.6153668e-08
-4.1534425e-08
-7.6159267e-08
3.1870947e-08
7.9321837e-08
-3.1875544e-08
-7.93269e-08
2.1287586e-08
7.5883823e-08
-2.1293342e-08
-7.5885926e-08
8.0182963e-09
6.5645952e-08
-8.0203015e-09
-6.5642883e-08
-5.1483781e-09
4.652117e-08
5.1538519e-09
-4.6512693e-08
-1.5346929e-08
2.5791164e-08
1.5362512e-08
-2.5780316e-08
-2.1755267e-08
2.7728621e-09
2.1783436e-08
-2.7782041e-09
-2.089619e-08
-1.2633583e-08
2.0804651e-08
1.2605387e-08
-1.2093899e-08
-1.3740697e-08
1.1842452e-08
1.3713024e-08
-4.5010336e-09
-4.873879e-09
4.8212176e-09
5.1790751e-09
-5.3696776e-09
-6.4342162e-09
5.4906252e-09
6.5734363e-09
-1.1086206e-09
-2.338077e-09
1.2139505e-09
2.4189769e-09
6.1291889e-09
5.2762371e-09
-5.9853922e-09
-5.1729121e-09
1.1794577e-08
1.1688355e-08
-1.1643259e-08
-1.1616173e-08
1.226966e-08
1.2925408e-08
-1.2153596e-08
-1.2869732e-08
8.9542601e-09
9.9704757e-09
-8.8798453e-09
-9.9233775e-09
4.2731248e-09
5.257569e-09
-4.2398857e-09
-5.2344109e-09
-8.2944566e-11
6.8412895e-10
8.3022984e-11
-6.839539e-10
-3.2530921e-09
-2.7737904e-09
3.2312703e-09
2.7568251e-09
-5.0398234e-09
-4.8236511e-09
5.0065868e-09
4.7959419e-09
-5.6243771e-09
-5.6134104e-09
5.587614e-09
5.5805985e-09
-5.3628246e-09
-5.488678e-09
5.3275716e-09
5.4549099e-09
-4.624648e-09
-4.8197243e-09
4.5935074e-09
4.787523e-09
-3.7132406e-09
-3.9360175e-09
3.68701e-09
3.9064913e-09
-2.8408903e-09
-3.0586449e-09
2.8190976e-09
3.0318454e-09
-2.1298946e-09
-2.3333263e-09
2.1113266e-09
2.3086579e-09
-1.6323177e-09
-1.8165204e-09
1.6156113e-09
1.7930955e-09
-1.34947e-09
-1.5235955e-09
1.3333688e-09
1.5004513e-09
-1.2637322e-09
-1.4409148e-09
1.2471725e-09
1.4171529e-09
-1.3483221e-09
-1.5427962e-09
1.3305464e-09
1.5176841e-09
-1.578383e-09
-1.8078195e-09
1.5588834e-09
1.7808097e-09
-1.9368924e-09
-2.2220022e-09
1.9153647e-09
2.1927104e-09
-2.4177975e-09
-2.7822361e-09
2.3941313e-09
2.7504194e-09
-3.0231512e-09
-3.4956013e-09
2.9973668e-09
3.4611319e-09
-3.7615053e-09
-4.3779632e-09
3.7337121e-09
4.3408075e-09
-4.6456145e-09
-5.451637e-09
4.6159852e-09
5.4118433e-09
-5.6884116e-09
-6.7431001e-09
5.657164e-09
6.700795e-09
-6.8990296e-09
-8.2783217e-09
6.8664155e-09
8.2337172e-09
-8.278405e-09
-1.0079889e-08
8.2447039e-09
1.00333e-08
-9.8151075e-09
-1.216189e-08
9.780623e-09
1.2113754e-08
-1.1480527e-08
-1.4524957e-08
1.1445589e-08
1.4475858e-08
-1.321219e-08
-1.7149907e-08
1.3177159e-08
1.7100599e-08
-1.4928445e-08
-1.9988506e-08
1.4893709e-08
1.9939924e-08
-1.650466e-08
-2.2954351e-08
1.6470639e-08
2.2907626e-08
-1.7781278e-08
-2.5929435e-08
1.774842e-08
2.5885883e-08
-1.8544309e-08
-2.8737881e-08
1.8513082e-08
2.8698958e-08
-1.8607548e-08
-3.116268e-08
1.8578419e-08
3.1129918e-08
-1.771302e-08
-3.291495e-08
1.7686424e-08
3.2889852e-08
-1.5582918e-08
-3.371378e-08
1.5559216e-08
3.3697684e-08
-1.2085392e-08
-3.3224233e-08
1.2064815e-08
3.321813e-08
-7.1587188e-09
-3.1131328e-08
7.1412983e-09
3.1135674e-08
-4.2616887e-10
-2.6795601e-08
4.1167299e-10
2.6810141e-08
7.1924027e-09
-2.0398816e-08
-7.2045182e-09
2.0422404e-08
1.5799948e-08
-1.1895751e-08
-1.5810555e-08
1.1926288e-08
2.5208605e-08
-8.5584059e-10
-2.5218852e-08
8.9029185e-10
3.4057333e-08
1.1963793e-08
-3.4068521e-08
-1.1929236e-08
4.1382923e-08
2.6376346e-08
-4.1396271e-08
-2.6345888e-08
4.6651314e-08
4.1422755e-08
-4.666745e-08
-4.1400466e-08
4.89132e-08
5.5593796e-08
-4.8931624e-08
-5.5582942e-08
4.7740136e-08
6.9066164e-08
-4.7759975e-08
-6.9068602e-08
4.1502625e-08
7.6196812e-08
-4.1521664e-08
-7.6212319e-08
3.1850503e-08
7.9347626e-08
-3.1863423e-08
-7.9373467e-08
2.1284216e-08
7.5886371e-08
-2.1285197e-08
-7.5917809e-08
8.0363141e-09
6.3401741e-08
-8.021574e-09
-6.3433347e-08
-5.1071273e-09
4.8686993e-08
5.1376984e-09
-4.8714834e-08
-1.7502973e-08
2.5720011e-08
1.7542941e-08
-2.5745538e-08
-2.1675756e-08
2.7168887e-09
2.1692202e-08
-2.7545426e-09
-2.0831653e-08
-1.2661535e-08
2.0788778e-08
1.2617773e-08
-1.2064527e-08
-1.3747063e-08
1.200992e-08
1.3739129e-08
-5.3116283e-09
-5.1002431e-09
5.2263748e-09
5.664391e-09
-6.319547e-09
-7.0812015e-09
6.1124377e-09
7.2250606e-09
-1.5102024e-09
-2.7260345e-09
1.4090409e-09
2.6891809e-09
5.5988796e-09
4.8984626e-09
-5.6252643e-09
-4.8900461e-09
1.1415941e-08
1.1456591e-08
-1.1411882e-08
-1.1448796e-08
1.2056792e-08
1.2828885e-08
-1.2068206e-08
-1.2825045e-08
8.870376e-09
9.9629296e-09
-8.9103265e-09
-9.967577e-09
4.225905e-09
5.2933938e-09
-4.2985129e-09
-5.3124764e-09
-1.2311725e-10
7.1610904e-10
2.4229377e-11
-7.5033895e-10
-3.3010077e-09
-2.7562019e-09
3.1876644e-09
2.7103235e-09
-5.0934947e-09
-4.8222227e-09
4.9776892e-09
4.7697474e-09
-5.6833947e-09
-5.6291619e-09
5.5742885e-09
5.574934e-09
-5.4216545e-09
-5.5111221e-09
5.3247057e-09
5.4588173e-09
-4.6789429e-09
-4.8466452e-09
4.5963174e-09
4.7984686e-09
-3.7616404e-09
-3.9597187e-09
3.6931179e-09
3.9165651e-09
-2.8823504e-09
-3.0832712e-09
2.8262449e-09
3.0450743e-09
-2.1655989e-09
-2.3501603e-09
2.119518e-09
2.3162292e-09
-1.6589761e-09
-1.8281728e-09
1.620405e-09
1.797512e-09
-1.3681544e-09
-1.5327395e-09
1.3347114e-09
1.5042802e-09
-1.277552e-09
-1.4457533e-09
1.2471748e-09
1.4184984e-09
-1.3601627e-09
-1.5436724e-09
1.331311e-09
1.5168011e-09
-1.5867609e-09
-1.8060838e-09
1.5583165e-09
1.7789503e-09
-1.9435683e-09
-2.2177967e-09
1.9147241e-09
2.1899204e-09
-2.4235498e-09
-2.7753995e-09
2.3937751e-09
2.7464644e-09
-3.0288851e-09
-3.4863534e-09
2.9978568e-09
3.4561698e-09
-3.7676108e-09
-4.3662597e-09
3.7351704e-09
4.3347314e-09
-4.6528738e-09
-5.4378539e-09
4.6189885e-09
5.4049527e-09
-5.6977879e-09
-6.7271649e-09
5.6625208e-09
6.692911e-09
-6.911451e-09
-8.2603969e-09
6.8749417e-09
8.2248476e-09
-8.2947634e-09
-1.0059063e-08
8.257225e-09
1.0022308e-08
-9.8380344e-09
-1.2143965e-08
9.7997558e-09
1.2106128e-08
-1.1509958e-08
-1.4507823e-08
1.1471311e-08
1.4469071e-08
-1.3250249e-08
-1.7133777e-08
1.3211701e-08
1.7094332e-08
-1.4977227e-08
-1.9975929e-08
1.4939348e-08
1.9936091e-08
-1.6570672e-08
-2.2950243e-08
1.6534144e-08
2.2910402e-08
-1.7871009e-08
-2.5934443e-08
1.7836623e-08
2.5895083e-08
-1.8677543e-08
-2.8766131e-08
1.8646189e-08
2.872784e-08
-1.8739697e-08
-3.1215143e-08
1.871233e-08
3.1178604e-08
-1.7866045e-08
-3.299274e-08
1.7843637e-08
3.29587e-08
-1.5778742e-08
-3.3840308e-08
1.5762207e-08
3.3809541e-08
-1.2301502e-08
-3.3378574e-08
1.2291596e-08
3.3351793e-08
-7.3725217e-09
-3.1137177e-08
7.3697247e-09
3.111496e-08
-8.5908197e-10
-2.7031305e-08
8.6347369e-10
2.7013985e-08
6.984785e-09
-2.0865212e-08
-6.9736442e-09
2.0852793e-08
1.5818252e-08
-1.2371363e-08
-1.5801407e-08
1.2363458e-08
2.5009579e-08
-1.3405585e-09
-2.4988704e-08
1.3363391e-09
3.3641326e-08
1.1692723e-08
-3.361865e-08
-1.1694467e-08
4.1193647e-08
2.6098732e-08
-4.1171746e-08
-2.6099455e-08
4.6465925e-08
4.0919447e-08
-4.6447458e-08
-4.0920574e-08
4.872959e-08
5.5312488e-08
-4.8717254e-08
-5.5315122e-08
4.7777216e-08
6.679279e-08
-4.7771728e-08
-6.6797258e-08
4.1534296e-08
7.6153668e-08
-4.1534425e-08
-7.6159267e-08
3.1870947e-08
7.9321837e-08
-3.1875544e-08
-7.9326899e-08
2.1287586e-08
7.5883822e-08
-2.1293341e-08
-7.5885926e-08
8.0182966e-09
6.5645953e-08
-8.0203015e-09
-6.5642884e-08
-5.1483778e-09
4.652117e-08
5.1538519e-09
-4.6512693e-08
-1.5346929e-08
2.5791164e-08
1.5362512e-08
-2.5780316e-08
-2.1755267e-08
2.7728625e-09
2.1783435e-08
-2.7782041e-09
-2.089619e-08
-1.2633583e-08
2.0804651e-08
1.2605387e-08
-1.20939e-08
-1.3740697e-08
1.1842452e-08
1.3713024e-08
-4.56113e-09
-4.7943551e-09
4.8267193e-09
5.2285458e-09
-5.3985296e-09
-6.3583143e-09
5.4849937e-09
6.6376085e-09
-1.0741298e-09
-2.299912e-09
1.1805402e-09
2.4980137e-09
6.1389311e-09
5.3231037e-09
-5.9758605e-09
-5.1373494e-09
1.1810416e-08
1.1726709e-08
-1.1635918e-08
-1.1601657e-08
1.2282527e-08
1.2935649e-08
-1.2150163e-08
-1.2848972e-08
8.9626385e-09
9.9760635e-09
-8.8798356e-09
-9.9132589e-09
4.2821768e-09
5.2668346e-09
-4.2461482e-09
-5.2375337e-09
-7.8766084e-11
6.8941865e-10
7.8384719e-11
-6.8857389e-10
-3.2505649e-09
-2.769563e-09
3.2265844e-09
2.7503671e-09
-5.0359622e-09
-4.8222238e-09
4.9998823e-09
4.7910087e-09
-5.6231067e-09
-5.6144545e-09
5.5834559e-09
5.5778282e-09
-5.3638284e-09
-5.4897719e-09
5.3259914e-09
5.4524046e-09
-4.6255216e-09
-4.8207492e-09
4.5922638e-09
4.7854134e-09
-3.7139288e-09
-3.9369103e-09
3.6860672e-09
3.9047996e-09
-2.8414276e-09
-3.0593801e-09
2.818418e-09
3.0305379e-09
-2.1303047e-09
-2.3339041e-09
2.1108604e-09
2.307676e-09
-1.6326114e-09
-1.8169606e-09
1.6153045e-09
1.7923743e-09
-1.3496687e-09
-1.5239238e-09
1.3331687e-09
1.4999308e-09
-1.2638577e-09
-1.4411552e-09
1.2470357e-09
1.4167829e-09
-1.3483958e-09
-1.5429704e-09
1.330455e-09
1.5174238e-09
-1.5784217e-09
-1.8079437e-09
1.5588282e-09
1.7806285e-09
-1.9369078e-09
-2.2220886e-09
1.9153349e-09
2.1925862e-09
-2.4177985e-09
-2.7822951e-09
2.3941177e-09
2.7503351e-09
-3.0231443e-09
-3.4956408e-09
2.9973625e-09
3.461075e-09
-3.7614948e-09
-4.3779891e-09
3.7337132e-09
4.3407694e-09
-4.6456029e-09
-5.4516539e-09
4.6159894e-09
5.4118178e-09
-5.6884002e-09
-6.7431108e-09
5.6571697e-09
6.700778e-09
-6.8990199e-09
-8.2783284e-09
6.8664215e-09
8.2337064e-09
-8.2783967e-09
-1.0079893e-08
8.2447094e-09
1.0033293e-08
-9.8151002e-09
-1.2161893e-08
9.7806278e-09
1.2113749e-08
-1.1480521e-08
-1.4524959e-08
1.1445593e-08
1.4475855e-08
-1.3212186e-08
-1.7149908e-08
1.3177163e-08
1.7100596e-08
-1.4928442e-08
-1.9988506e-08
1.4893712e-08
1.9939923e-08
-1.6504657e-08
-2.2954351e-08
1.6470641e-08
2.2907626e-08
-1.7781275e-08
-2.5929436e-08
1.7748422e-08
2.5885882e-08
-1.8544307e-08
-2.8737882e-08
1.8513084e-08
2.8698958e-08
-1.8607547e-08
-3.116268e-08
1.8578419e-08
3.1129917e-08
-1.7713019e-08
-3.2914951e-08
1.7686424e-08
3.288985e-08
-1.5582916e-08
-3.3713781e-08
1.5559216e-08
3.3697683e-08
-1.2085392e-08
-3.3224233e-08
1.2064815e-08
3.321813e-08
-7.1587183e-09
-3.1131328e-08
7.1412986e-09
3.1135674e-08
-4.2616824e-10
-2.6795601e-08
4.1167328e-10
2.6810141e-08
7.1924025e-09
-2.0398816e-08
-7.2045183e-09
2.0422409e-08
1.5799947e-08
-1.1895751e-08
-1.5810554e-08
1.1926288e-08
2.5208605e-08
-8.5584052e-10
-2.5218851e-08
8.9028756e-10
3.4057333e-08
1.1963794e-08
-3.4068521e-08
-1.1929236e-08
4.1382923e-08
2.6376346e-08
-4.1396271e-08
-2.6345888e-08
4.6651314e-08
4.1422755e-08
-4.666745e-08
-4.1400466e-08
4.89132e-08
5.5593796e-08
-4.8931624e-08
-5.5582942e-08
4.7740136e-08
6.9066164e-08
-4.7759975e-08
-6.9068602e-08
4.1502625e-08
7.6196812e-08
-4.1521664e-08
-7.6212319e-08
3.1850503e-08
7.9347626e-08
-3.1863423e-08
-7.9373467e-08
2.1284216e-08
7.5886371e-08
-2.1285197e-08
-7.5917809e-08
8.0363141e-09
6.3401741e-08
-8.021574e-09
-6.3433347e-08
-5.1071277e-09
4.8686993e-08
5.1376985e-09
-4.8714834e-08
-1.7502973e-08
2.5720011e-08
1.7542941e-08
-2.5745538e-08
-2.1675756e-08
2.7168887e-09
2.1692202e-08
-2.7545426e-09
-2.0831653e-08
-1.2661535e-08
2.0788778e-08
1.2617773e-08
-1.2064527e-08
-1.3747063e-08
1.200992e-08
1.3739129e-08
)
;

boundaryField
{
    movingWall
    {
        type            calculated;
        value           nonuniform List<scalar> 
16
(
-1.1280509e-08
-1.1265035e-08
-1.1280509e-08
-1.1265035e-08
-1.4028638e-08
-1.4021969e-08
-1.4028638e-08
-1.4021969e-08
1.099585e-08
1.1232391e-08
1.0995851e-08
1.1232391e-08
1.4008172e-08
1.4044036e-08
1.4008172e-08
1.4044036e-08
)
;
    }
    CPLReceiveMD
    {
        type            calculated;
        value           nonuniform List<scalar> 
16
(
9.4660684e-10
-4.4274586e-09
-5.5310805e-09
-4.4916736e-09
-4.9118169e-09
-4.7782203e-09
-4.9874512e-09
-4.6990387e-09
5.5720613e-09
4.9165715e-09
5.4002273e-09
4.9282577e-09
5.7760973e-09
5.151651e-09
5.6783731e-09
5.1952076e-09
)
;
    }
    streamwiseIn
    {
        type            cyclic;
    }
    streamwiseOut
    {
        type            cyclic;
    }
    front
    {
        type            cyclic;
    }
    back
    {
        type            cyclic;
    }
}


// ************************************************************************* //
