/*--------------------------------*- C++ -*----------------------------------*\
| =========                 |                                                 |
| \\      /  F ield         | OpenFOAM: The Open Source CFD Toolbox           |
|  \\    /   O peration     | Version:  3.0.x                                 |
|   \\  /    A nd           | Web:      www.OpenFOAM.org                      |
|    \\/     M anipulation  |                                                 |
\*---------------------------------------------------------------------------*/
FoamFile
{
    version     2.0;
    format      ascii;
    class       volScalarField;
    location    "50";
    object      sigmaxy;
}
// * * * * * * * * * * * * * * * * * * * * * * * * * * * * * * * * * * * * * //

dimensions      [0 2 -2 0 0 0 0];

internalField   nonuniform List<scalar> 
960
(
0.021396512
0.021396482
0.021396484
0.021396508
0.0041162587
0.0041162604
0.0041162609
0.0041162561
-0.00095134224
-0.00095131968
-0.00095132112
-0.00095134289
-0.0023199139
-0.0023198867
-0.0023198883
-0.002319913
-0.002264287
-0.0022642691
-0.002264271
-0.0022642849
-0.0017326969
-0.0017326946
-0.0017326963
-0.0017326951
-0.0011422352
-0.0011422423
-0.0011422435
-0.0011422346
-0.00065862501
-0.00065863398
-0.00065863486
-0.00065862538
-0.00032379513
-0.00032380152
-0.00032380199
-0.00032379593
-0.00012365893
-0.00012366107
-0.00012366125
-0.00012365982
-2.4327306e-05
-2.4325447e-05
-2.4325442e-05
-2.432808e-05
9.8177122e-06
9.8223879e-06
9.8224944e-06
9.8171516e-06
8.1787377e-06
8.1848314e-06
8.184977e-06
8.1783946e-06
-8.4485943e-06
-8.4423098e-06
-8.4421615e-06
-8.448763e-06
-2.7358792e-05
-2.7353192e-05
-2.7353062e-05
-2.7358847e-05
-4.2143287e-05
-4.2138827e-05
-4.2138737e-05
-4.2143276e-05
-5.0623769e-05
-5.0620633e-05
-5.0620595e-05
-5.062373e-05
-5.3052873e-05
-5.3051077e-05
-5.3051075e-05
-5.3052844e-05
-5.0790731e-05
-5.0790162e-05
-5.0790201e-05
-5.0790737e-05
-4.5460955e-05
-4.5461482e-05
-4.5461575e-05
-4.5461015e-05
-3.8490978e-05
-3.8492521e-05
-3.849266e-05
-3.8491096e-05
-3.0914779e-05
-3.091731e-05
-3.0917504e-05
-3.0914962e-05
-2.3328227e-05
-2.3331783e-05
-2.3332043e-05
-2.3328487e-05
-1.591389e-05
-1.5918588e-05
-1.591893e-05
-1.5914245e-05
-8.4792738e-06
-8.4852983e-06
-8.4857472e-06
-8.4797492e-06
-4.738445e-07
-4.8144356e-07
-4.8203008e-07
-4.7447463e-07
9.035642e-06
9.0261626e-06
9.0253978e-06
9.0348125e-06
2.1443929e-05
2.1432217e-05
2.143122e-05
2.144284e-05
3.8748923e-05
3.8734592e-05
3.8733295e-05
3.8747498e-05
6.3763677e-05
6.3746302e-05
6.3744611e-05
6.3761813e-05
0.00010040529
0.00010038445
0.00010038225
0.00010040287
0.00015406578
0.00015404109
0.00015403826
0.00015406265
0.00023206594
0.00023203704
0.0002320334
0.00023206192
0.00034418573
0.00034415237
0.00034414771
0.00034418062
0.00050325374
0.00050321576
0.00050320988
0.0005032473
0.00072576168
0.00072571917
0.00072571174
0.00072575368
0.0010324505
0.0010324038
0.0010323944
0.0010324407
0.0014487908
0.0014487404
0.001448729
0.001448779
0.0020052571
0.0020052039
0.00200519
0.0020052432
0.0027372748
0.0027372199
0.0027372032
0.0027372587
0.0036847056
0.0036846508
0.0036846312
0.003684688
0.0048907402
0.0048906867
0.0048906642
0.004890721
0.0064000848
0.0064000341
0.0064000081
0.0064000641
0.0082563706
0.0082563249
0.0082562954
0.0082563503
0.010498799
0.01049876
0.010498728
0.010498781
0.013158112
0.01315808
0.013158048
0.013158097
0.0162521
0.016252076
0.016252042
0.01625209
0.019780983
0.019780967
0.019780932
0.019780978
0.023723105
0.023723094
0.023723061
0.023723106
0.028031452
0.028031448
0.028031411
0.028031461
0.032631551
0.032631541
0.032631515
0.03263156
0.037421227
0.037421212
0.037421191
0.037421239
0.042272637
0.042272623
0.042272593
0.042272648
0.047036757
0.047036728
0.047036705
0.047036754
0.051550227
0.051550181
0.051550158
0.05155021
0.055644245
0.055644192
0.055644169
0.055644216
0.059154918
0.059154854
0.059154843
0.059154868
0.061934104
0.06193403
0.061934036
0.06193403
0.063859815
0.063859769
0.06385979
0.063859743
0.064845235
0.064845237
0.064845277
0.064845176
0.021396506
0.021396479
0.021396481
0.021396501
0.0041162556
0.0041162583
0.0041162593
0.0041162536
-0.00095134215
-0.0009513203
-0.00095132068
-0.00095134154
-0.0023199123
-0.0023198859
-0.0023198866
-0.0023199105
-0.0022642837
-0.0022642672
-0.0022642684
-0.0022642807
-0.0017326937
-0.0017326927
-0.0017326939
-0.0017326914
-0.0011422334
-0.0011422413
-0.0011422422
-0.0011422325
-0.00065862437
-0.00065863391
-0.00065863451
-0.00065862458
-0.00032379532
-0.00032380202
-0.00032380231
-0.00032379603
-0.0001236595
-0.0001236618
-0.00012366187
-0.00012366033
-2.4327969e-05
-2.4326194e-05
-2.4326107e-05
-2.43287e-05
9.8171383e-06
9.8217637e-06
9.8219191e-06
9.8166001e-06
8.1783105e-06
8.1843589e-06
8.1845389e-06
8.1779886e-06
-8.4488679e-06
-8.4426271e-06
-8.4424559e-06
-8.4490203e-06
-2.7358945e-05
-2.7353363e-05
-2.7353226e-05
-2.735898e-05
-4.2143344e-05
-4.2138907e-05
-4.2138812e-05
-4.2143315e-05
-5.0623762e-05
-5.0620663e-05
-5.0620615e-05
-5.0623714e-05
-5.3052841e-05
-5.3051071e-05
-5.305106e-05
-5.3052811e-05
-5.0790688e-05
-5.0790141e-05
-5.0790178e-05
-5.0790699e-05
-4.5460919e-05
-4.5461466e-05
-4.5461558e-05
-4.5460971e-05
-3.8490951e-05
-3.849251e-05
-3.849265e-05
-3.8491061e-05
-3.0914761e-05
-3.0917303e-05
-3.0917499e-05
-3.0914943e-05
-2.332822e-05
-2.3331786e-05
-2.333205e-05
-2.3328484e-05
-1.5913892e-05
-1.59186e-05
-1.5918949e-05
-1.5914255e-05
-8.4792891e-06
-8.4853213e-06
-8.4857794e-06
-8.4797743e-06
-4.7387461e-07
-4.8147937e-07
-4.8207792e-07
-4.7451609e-07
9.0355941e-06
9.0261114e-06
9.0253308e-06
9.0347501e-06
2.1443857e-05
2.1432144e-05
2.1431127e-05
2.144275e-05
3.8748824e-05
3.8734489e-05
3.8733168e-05
3.8747372e-05
6.3763529e-05
6.3746164e-05
6.3744445e-05
6.376164e-05
0.00010040508
0.00010038426
0.00010038203
0.00010040263
0.0001540655
0.00015404083
0.00015403796
0.00015406234
0.00023206558
0.00023203671
0.00023203301
0.00023206152
0.00034418526
0.00034415194
0.00034414722
0.00034418011
0.00050325312
0.00050321522
0.00050320925
0.00050324663
0.00072576089
0.00072571854
0.00072571097
0.00072575284
0.0010324496
0.001032403
0.0010323936
0.0010324397
0.0014487897
0.0014487395
0.0014487279
0.0014487779
0.0020052558
0.0020052029
0.0020051888
0.0020052419
0.0027372734
0.0027372187
0.0027372019
0.0027372573
0.0036847042
0.0036846493
0.0036846292
0.0036846864
0.0048907388
0.0048906859
0.0048906629
0.0048907194
0.0064000829
0.0064000328
0.0064000074
0.0064000628
0.0082563693
0.0082563229
0.0082562947
0.0082563496
0.010498798
0.010498759
0.010498727
0.01049878
0.013158111
0.013158081
0.013158046
0.013158096
0.0162521
0.016252076
0.016252042
0.01625209
0.019780984
0.019780968
0.019780933
0.01978098
0.023723107
0.023723096
0.023723062
0.023723108
0.028031452
0.028031447
0.028031417
0.02803146
0.03263155
0.032631545
0.032631514
0.032631565
0.037421233
0.037421219
0.037421191
0.037421246
0.042272644
0.042272623
0.0422726
0.042272648
0.047036764
0.047036735
0.047036705
0.04703676
0.051550227
0.051550188
0.051550164
0.051550217
0.055644245
0.055644186
0.055644176
0.055644216
0.059154925
0.059154854
0.059154843
0.059154868
0.061934097
0.061934037
0.06193403
0.06193403
0.063859808
0.063859763
0.063859783
0.063859737
0.064845235
0.06484523
0.064845277
0.064845169
0.021396512
0.021396482
0.021396484
0.021396507
0.0041162587
0.00411626
0.0041162609
0.0041162565
-0.00095134222
-0.00095132055
-0.00095132107
-0.00095134202
-0.0023199139
-0.0023198875
-0.0023198883
-0.0023199123
-0.0022642869
-0.0022642697
-0.0022642711
-0.0022642842
-0.0017326968
-0.0017326951
-0.0017326963
-0.0017326947
-0.0011422352
-0.0011422425
-0.0011422435
-0.0011422343
-0.00065862501
-0.00065863418
-0.00065863486
-0.00065862512
-0.00032379512
-0.00032380168
-0.000323802
-0.00032379579
-0.00012365893
-0.00012366117
-0.00012366125
-0.00012365972
-2.4327311e-05
-2.432551e-05
-2.432545e-05
-2.4328017e-05
9.81772e-06
9.8223483e-06
9.8224932e-06
9.8171912e-06
8.1787451e-06
8.1847982e-06
8.1849762e-06
8.1784211e-06
-8.4485937e-06
-8.442332e-06
-8.4421687e-06
-8.4487408e-06
-2.7358792e-05
-2.7353198e-05
-2.7353062e-05
-2.7358835e-05
-4.2143286e-05
-4.2138838e-05
-4.2138738e-05
-4.2143265e-05
-5.0623769e-05
-5.0620643e-05
-5.0620589e-05
-5.0623721e-05
-5.3052873e-05
-5.3051072e-05
-5.3051075e-05
-5.3052849e-05
-5.0790731e-05
-5.0790156e-05
-5.0790207e-05
-5.0790742e-05
-4.5460955e-05
-4.546149e-05
-4.5461575e-05
-4.5461007e-05
-3.8490978e-05
-3.8492528e-05
-3.849266e-05
-3.849109e-05
-3.0914779e-05
-3.0917311e-05
-3.0917504e-05
-3.0914962e-05
-2.3328227e-05
-2.3331783e-05
-2.3332043e-05
-2.3328486e-05
-1.591389e-05
-1.5918588e-05
-1.591893e-05
-1.5914244e-05
-8.4792738e-06
-8.4852984e-06
-8.4857472e-06
-8.4797491e-06
-4.7384449e-07
-4.8144362e-07
-4.820301e-07
-4.7447457e-07
9.0356421e-06
9.0261626e-06
9.0253978e-06
9.0348125e-06
2.1443928e-05
2.1432217e-05
2.143122e-05
2.144284e-05
3.8748923e-05
3.8734592e-05
3.8733295e-05
3.8747498e-05
6.3763678e-05
6.3746302e-05
6.3744611e-05
6.3761813e-05
0.00010040529
0.00010038445
0.00010038225
0.00010040287
0.00015406578
0.00015404109
0.00015403826
0.00015406265
0.00023206594
0.00023203704
0.0002320334
0.00023206192
0.00034418573
0.00034415237
0.00034414771
0.00034418062
0.00050325374
0.00050321576
0.00050320988
0.0005032473
0.00072576168
0.00072571917
0.00072571174
0.00072575368
0.0010324505
0.0010324038
0.0010323944
0.0010324407
0.0014487908
0.0014487404
0.001448729
0.001448779
0.0020052571
0.0020052039
0.00200519
0.0020052432
0.0027372748
0.0027372199
0.0027372032
0.0027372587
0.0036847056
0.0036846508
0.0036846312
0.003684688
0.0048907402
0.0048906867
0.0048906642
0.004890721
0.0064000848
0.0064000341
0.0064000081
0.0064000641
0.0082563706
0.0082563249
0.0082562954
0.0082563503
0.010498799
0.01049876
0.010498728
0.010498781
0.013158112
0.01315808
0.013158048
0.013158097
0.0162521
0.016252076
0.016252042
0.01625209
0.019780983
0.019780967
0.019780932
0.019780978
0.023723105
0.023723094
0.023723061
0.023723106
0.028031452
0.028031448
0.028031411
0.028031461
0.032631551
0.032631541
0.032631515
0.03263156
0.037421227
0.037421212
0.037421191
0.037421239
0.042272637
0.042272623
0.042272593
0.042272648
0.047036757
0.047036728
0.047036705
0.047036754
0.051550227
0.051550181
0.051550158
0.05155021
0.055644245
0.055644192
0.055644169
0.055644216
0.059154918
0.059154854
0.059154843
0.059154868
0.061934104
0.06193403
0.061934036
0.06193403
0.063859815
0.063859769
0.06385979
0.063859743
0.064845235
0.064845237
0.064845277
0.064845176
0.021396506
0.021396479
0.021396481
0.021396501
0.0041162556
0.0041162584
0.0041162592
0.0041162536
-0.00095134215
-0.00095132039
-0.00095132068
-0.00095134152
-0.0023199124
-0.0023198859
-0.0023198866
-0.0023199104
-0.0022642837
-0.0022642672
-0.0022642685
-0.0022642807
-0.0017326937
-0.0017326927
-0.0017326939
-0.0017326914
-0.0011422334
-0.0011422413
-0.0011422422
-0.0011422325
-0.00065862437
-0.00065863392
-0.00065863451
-0.00065862459
-0.00032379531
-0.00032380203
-0.00032380232
-0.00032379603
-0.00012365949
-0.0001236618
-0.00012366188
-0.00012366033
-2.4327959e-05
-2.4326189e-05
-2.4326116e-05
-2.4328692e-05
9.8171405e-06
9.8217561e-06
9.8219102e-06
9.8166077e-06
8.1783122e-06
8.1843516e-06
8.1845373e-06
8.1779893e-06
-8.4488668e-06
-8.4426276e-06
-8.442457e-06
-8.4490198e-06
-2.7358944e-05
-2.7353363e-05
-2.7353227e-05
-2.735898e-05
-4.2143343e-05
-4.2138908e-05
-4.2138813e-05
-4.2143314e-05
-5.0623762e-05
-5.0620664e-05
-5.0620615e-05
-5.0623714e-05
-5.3052841e-05
-5.3051071e-05
-5.305106e-05
-5.305281e-05
-5.0790687e-05
-5.0790141e-05
-5.0790178e-05
-5.0790698e-05
-4.5460919e-05
-4.5461466e-05
-4.5461558e-05
-4.5460971e-05
-3.849095e-05
-3.849251e-05
-3.849265e-05
-3.8491061e-05
-3.0914761e-05
-3.0917303e-05
-3.0917499e-05
-3.0914943e-05
-2.332822e-05
-2.3331786e-05
-2.333205e-05
-2.3328484e-05
-1.5913892e-05
-1.59186e-05
-1.5918949e-05
-1.5914255e-05
-8.4792891e-06
-8.4853213e-06
-8.4857795e-06
-8.4797743e-06
-4.7387459e-07
-4.8147939e-07
-4.8207793e-07
-4.7451607e-07
9.0355941e-06
9.0261114e-06
9.0253308e-06
9.0347501e-06
2.1443857e-05
2.1432144e-05
2.1431127e-05
2.144275e-05
3.8748824e-05
3.8734489e-05
3.8733168e-05
3.8747372e-05
6.3763529e-05
6.3746164e-05
6.3744445e-05
6.376164e-05
0.00010040508
0.00010038426
0.00010038203
0.00010040263
0.0001540655
0.00015404083
0.00015403796
0.00015406234
0.00023206558
0.00023203671
0.00023203301
0.00023206152
0.00034418526
0.00034415194
0.00034414722
0.00034418011
0.00050325312
0.00050321522
0.00050320925
0.00050324663
0.00072576089
0.00072571854
0.00072571097
0.00072575284
0.0010324496
0.001032403
0.0010323936
0.0010324397
0.0014487897
0.0014487395
0.0014487279
0.0014487779
0.0020052558
0.0020052029
0.0020051888
0.0020052419
0.0027372734
0.0027372187
0.0027372019
0.0027372573
0.0036847042
0.0036846493
0.0036846292
0.0036846864
0.0048907388
0.0048906859
0.0048906629
0.0048907194
0.0064000829
0.0064000328
0.0064000074
0.0064000628
0.0082563693
0.0082563229
0.0082562947
0.0082563496
0.010498798
0.010498759
0.010498727
0.01049878
0.013158111
0.013158081
0.013158046
0.013158096
0.0162521
0.016252076
0.016252042
0.01625209
0.019780984
0.019780968
0.019780933
0.01978098
0.023723107
0.023723096
0.023723062
0.023723108
0.028031452
0.028031447
0.028031417
0.02803146
0.03263155
0.032631545
0.032631514
0.032631565
0.037421233
0.037421219
0.037421191
0.037421246
0.042272644
0.042272623
0.0422726
0.042272648
0.047036764
0.047036735
0.047036705
0.04703676
0.051550227
0.051550188
0.051550164
0.051550217
0.055644245
0.055644186
0.055644176
0.055644216
0.059154925
0.059154854
0.059154843
0.059154868
0.061934097
0.061934037
0.06193403
0.06193403
0.063859808
0.063859763
0.063859783
0.063859737
0.064845235
0.06484523
0.064845277
0.064845169
)
;

boundaryField
{
    movingWall
    {
        type            calculated;
        value           nonuniform List<scalar> 
16
(
0.065094466
0.065094466
0.065094466
0.065094466
0.065094494
0.065094494
0.065094494
0.065094494
0.065094548
0.065094548
0.065094548
0.065094548
0.065094413
0.065094413
0.065094413
0.065094413
)
;
    }
    CPLReceiveMD
    {
        type            calculated;
        value           nonuniform List<scalar> 
16
(
0.03481348
0.034813475
0.034813479
0.034813475
0.034813433
0.034813431
0.034813434
0.034813431
0.034813436
0.034813432
0.034813436
0.034813432
0.034813475
0.034813469
0.034813475
0.034813469
)
;
    }
    streamwiseIn
    {
        type            cyclic;
    }
    streamwiseOut
    {
        type            cyclic;
    }
    front
    {
        type            cyclic;
    }
    back
    {
        type            cyclic;
    }
}


// ************************************************************************* //
