/*--------------------------------*- C++ -*----------------------------------*\
| =========                 |                                                 |
| \\      /  F ield         | OpenFOAM: The Open Source CFD Toolbox           |
|  \\    /   O peration     | Version:  3.0.x                                 |
|   \\  /    A nd           | Web:      www.OpenFOAM.org                      |
|    \\/     M anipulation  |                                                 |
\*---------------------------------------------------------------------------*/
FoamFile
{
    version     2.0;
    format      ascii;
    class       volScalarField;
    location    "50";
    object      sigmayy;
}
// * * * * * * * * * * * * * * * * * * * * * * * * * * * * * * * * * * * * * //

dimensions      [0 2 -2 0 0 0 0];

internalField   nonuniform List<scalar> 
960
(
-2.1506934e-09
4.8181629e-09
-5.5152881e-09
-6.010599e-09
4.9375164e-09
6.1582337e-09
-5.591089e-09
-6.3996413e-09
2.9047855e-09
2.1297732e-09
-1.2048092e-09
-2.2891152e-09
-4.2966711e-09
-5.5305663e-09
5.8200693e-09
5.2442494e-09
-1.0567355e-08
-1.1823977e-08
1.1346881e-08
1.1567885e-08
-1.1348596e-08
-1.3094846e-08
1.2015545e-08
1.2946784e-08
-8.1872911e-09
-1.00929e-08
8.8027095e-09
1.0039121e-08
-3.6367072e-09
-5.3164311e-09
4.2059729e-09
5.341337e-09
6.0456339e-10
-6.7670458e-10
-8.2257583e-11
7.6087531e-10
3.6773481e-09
2.8238693e-09
-3.2057248e-09
-2.7013656e-09
5.3799512e-09
4.9014126e-09
-4.964799e-09
-4.7597768e-09
5.8971566e-09
5.7045264e-09
-5.5421759e-09
-5.5589239e-09
5.5805548e-09
5.5796906e-09
-5.2851963e-09
-5.4404482e-09
4.7957536e-09
4.906298e-09
-4.5553049e-09
-4.7792388e-09
3.8503859e-09
4.0120527e-09
-3.6572854e-09
-3.8994265e-09
2.9533555e-09
3.1289238e-09
-2.7991024e-09
-3.0305156e-09
2.2221077e-09
2.3928922e-09
-2.0985459e-09
-2.3070177e-09
1.7089488e-09
1.8707741e-09
-1.6084568e-09
-1.7949974e-09
1.4181914e-09
1.573485e-09
-1.3339225e-09
-1.505107e-09
1.3270734e-09
1.4881092e-09
-1.253449e-09
-1.4245889e-09
1.4079596e-09
1.5897178e-09
-1.3407895e-09
-1.5289508e-09
1.638339e-09
1.8570741e-09
-1.5744985e-09
-1.797387e-09
2.000636e-09
2.2757434e-09
-1.9378135e-09
-2.2158446e-09
2.4879822e-09
2.8425401e-09
-2.4246103e-09
-2.7815116e-09
3.1028765e-09
3.5650326e-09
-3.0379786e-09
-3.5022684e-09
3.8538948e-09
4.4594189e-09
-3.786915e-09
-4.3945503e-09
4.7543084e-09
5.5488497e-09
-4.6849923e-09
-5.4816827e-09
5.8176659e-09
6.8600699e-09
-5.7459927e-09
-6.7905369e-09
7.0538176e-09
8.4202867e-09
-6.9799611e-09
-8.348419e-09
8.4645462e-09
1.025221e-08
-8.3888545e-09
-1.0178125e-08
1.0039777e-08
1.2374804e-08
-9.9627693e-09
-1.22987e-08
1.1749177e-08
1.4785705e-08
-1.1671554e-08
-1.4707878e-08
1.3535415e-08
1.7467828e-08
-1.3458077e-08
-1.7388698e-08
1.5315009e-08
2.0375979e-08
-1.5239074e-08
-2.0296128e-08
1.6967355e-08
2.3428633e-08
-1.6894168e-08
-2.334882e-08
1.8333069e-08
2.6504393e-08
-1.8264202e-08
-2.6425574e-08
1.9213815e-08
2.9438237e-08
-1.9151035e-08
-2.9361583e-08
1.93714e-08
3.2006175e-08
-1.9316614e-08
-3.1933045e-08
1.8589406e-08
3.3930304e-08
-1.8544552e-08
-3.3862198e-08
1.6611724e-08
3.4926421e-08
-1.6578626e-08
-3.4864851e-08
1.3252215e-08
3.4635399e-08
-1.323238e-08
-3.4581806e-08
8.420559e-09
3.2649107e-08
-8.4149487e-09
-3.2604657e-08
2.0510378e-09
2.8764648e-08
-2.0598113e-09
-2.8729992e-08
-5.6478656e-09
2.2756946e-08
5.6255911e-09
-2.2732109e-08
-1.4327364e-08
1.4423817e-08
1.4293681e-08
-1.4408007e-08
-2.3389713e-08
3.6797293e-09
2.3347968e-08
-3.6712828e-09
-3.1998639e-08
-9.0721117e-09
3.195329e-08
9.0756175e-09
-3.9447316e-08
-2.3237945e-08
3.9403519e-08
2.3239399e-08
-4.4665986e-08
-3.7900314e-08
4.4629054e-08
3.7902569e-08
-4.6863238e-08
-5.2040203e-08
4.6838567e-08
5.204547e-08
-4.5624227e-08
-6.3683295e-08
4.5613252e-08
6.3692228e-08
-3.9795748e-08
-7.2419009e-08
3.9796006e-08
7.2430207e-08
-3.0455091e-08
-7.5426667e-08
3.0464286e-08
7.5436792e-08
-1.927441e-08
-7.1879318e-08
1.9285922e-08
7.1883526e-08
-6.0505515e-09
-6.1389618e-08
6.0545621e-09
6.1383481e-08
6.9680761e-09
-4.3112136e-08
-6.9790235e-09
4.3095181e-08
1.7379137e-08
-2.1624206e-08
-1.7410303e-08
2.160251e-08
2.3538452e-08
1.1116366e-09
-2.3594789e-08
-1.1009524e-09
2.1820298e-08
1.5281126e-08
-2.163722e-08
-1.5224733e-08
1.4201758e-08
1.7495353e-08
-1.3698862e-08
-1.7440007e-08
4.2090092e-09
4.3789394e-09
-4.8349984e-09
-5.1017774e-09
4.5794168e-09
5.5320661e-09
-4.807005e-09
-5.9350262e-09
6.425658e-10
2.0043129e-09
-8.4481771e-10
-2.2814819e-09
-6.451274e-09
-5.5291748e-09
6.1664166e-09
5.2215874e-09
-1.1862589e-08
-1.1756612e-08
1.1559581e-08
1.1527528e-08
-1.2283668e-08
-1.2993418e-08
1.2050185e-08
1.2813249e-08
-8.9170149e-09
-1.0007722e-08
8.7670568e-09
9.8590862e-09
-4.2027006e-09
-5.2710595e-09
4.1357999e-09
5.1825659e-09
1.5826187e-10
-6.7761604e-10
-1.580606e-10
6.4515608e-10
3.3193456e-09
2.7892183e-09
-3.2746794e-09
-2.7793662e-09
5.0917867e-09
4.8440399e-09
-5.0238231e-09
-4.8064398e-09
5.6648916e-09
5.636396e-09
-5.5896127e-09
-5.5838043e-09
5.3945997e-09
5.5114161e-09
-5.3222548e-09
-5.4533123e-09
4.6503816e-09
4.8435674e-09
-4.5863095e-09
-4.7859301e-09
3.7361206e-09
3.9589898e-09
-3.6820031e-09
-3.9047522e-09
2.8633677e-09
3.0835528e-09
-2.8183062e-09
-3.0333591e-09
2.1535581e-09
2.3589546e-09
-2.1151458e-09
-2.3120147e-09
1.6575645e-09
1.8448931e-09
-1.6230749e-09
-1.7997242e-09
1.3780099e-09
1.5554914e-09
-1.3449163e-09
-1.5103788e-09
1.2962994e-09
1.4768131e-09
-1.2624539e-09
-1.4301109e-09
1.3854987e-09
1.5841403e-09
-1.3493645e-09
-1.5344899e-09
1.6211912e-09
1.8559479e-09
-1.5817303e-09
-1.8023296e-09
1.9869718e-09
2.2785932e-09
-1.9435556e-09
-2.2202913e-09
2.4767252e-09
2.8491947e-09
-2.4291136e-09
-2.7857599e-09
3.0928908e-09
3.5752595e-09
-3.0411081e-09
-3.5064616e-09
3.8445816e-09
4.4732099e-09
-3.7888328e-09
-4.3989993e-09
4.7449892e-09
5.566042e-09
-4.6856082e-09
-5.486527e-09
5.8076618e-09
6.8807482e-09
-5.7450751e-09
-6.7961906e-09
7.0425423e-09
8.4443029e-09
-6.977246e-09
-8.3551324e-09
8.4515027e-09
1.0280245e-08
-8.3840505e-09
-1.0187094e-08
1.0023665e-08
1.2403769e-08
-9.9546594e-09
-1.2307517e-08
1.1730101e-08
1.4816471e-08
-1.16602e-08
-1.4718289e-08
1.3512441e-08
1.749996e-08
-1.344236e-08
-1.7401356e-08
1.5287265e-08
2.0407697e-08
-1.5217779e-08
-2.0310543e-08
1.6931801e-08
2.345675e-08
-1.6863749e-08
-2.3363308e-08
1.8286709e-08
2.6527611e-08
-1.8220987e-08
-2.6440511e-08
1.9147034e-08
2.9448273e-08
-1.9084575e-08
-2.937043e-08
1.9306798e-08
3.2001082e-08
-1.9248536e-08
-3.1935561e-08
1.8516346e-08
3.3907855e-08
-1.8463151e-08
-3.3857661e-08
1.6519643e-08
3.4873066e-08
-1.6472237e-08
-3.4840876e-08
1.3152852e-08
3.4559708e-08
-1.3111698e-08
-3.4547503e-08
8.3258136e-09
3.2637402e-08
-8.2909718e-09
-3.2646094e-08
1.8509422e-09
2.86261e-08
-1.8219498e-09
-2.8655179e-08
-5.7302363e-09
2.248989e-08
5.7544677e-09
-2.2537067e-08
-1.4290757e-08
1.4138329e-08
1.4311972e-08
-1.4199403e-08
-2.3454899e-08
3.3760212e-09
2.3475393e-08
-3.444924e-09
-3.2164919e-08
-9.2813937e-09
3.2187295e-08
9.2122795e-09
-3.9493003e-08
-2.3460305e-08
3.9519698e-08
2.339939e-08
-4.4703896e-08
-3.8241194e-08
4.4736168e-08
3.8196615e-08
-4.6897592e-08
-5.2269951e-08
4.6934439e-08
5.2248243e-08
-4.5550068e-08
-6.4901362e-08
4.5589746e-08
6.4906238e-08
-3.9732406e-08
-7.2505297e-08
3.9770484e-08
7.253631e-08
-3.0414203e-08
-7.5478244e-08
3.0440044e-08
7.5529926e-08
-1.926767e-08
-7.1884415e-08
1.9269632e-08
7.1947291e-08
-6.0865872e-09
-6.0229876e-08
6.0571072e-09
6.0293088e-08
6.8855742e-09
-4.4115102e-08
-6.9467165e-09
4.4170784e-08
1.8362545e-08
-2.1481898e-08
-1.8442481e-08
2.1532952e-08
2.337943e-08
1.2235832e-09
-2.3412322e-08
-1.1482755e-09
2.1691225e-08
1.5337029e-08
-2.1605474e-08
-1.5249505e-08
1.4143013e-08
1.7508084e-08
-1.4033799e-08
-1.7492217e-08
5.2441947e-09
4.9361035e-09
-5.5358433e-09
-5.8999143e-09
4.4780986e-09
6.0860323e-09
-5.2446912e-09
-6.504556e-09
-1.1335826e-10
2.1100668e-09
-8.2163806e-10
-2.2916347e-09
-6.9231103e-09
-5.5648837e-09
5.9994417e-09
5.2543298e-09
-1.219307e-08
-1.1880914e-08
1.1404178e-08
1.158204e-08
-1.2552992e-08
-1.3174157e-08
1.1978245e-08
1.2917177e-08
-9.117043e-09
-1.0182045e-08
8.751555e-09
9.9836848e-09
-4.3137669e-09
-5.4080065e-09
4.1321652e-09
5.2791592e-09
1.192997e-10
-7.6148823e-10
-1.5914999e-10
6.9865498e-10
3.3321462e-09
2.7501521e-09
-3.2774413e-09
-2.7601393e-09
5.134395e-09
4.8373666e-09
-5.027131e-09
-4.8106109e-09
5.7226937e-09
5.6519164e-09
-5.5945412e-09
-5.6033018e-09
5.4558544e-09
5.5363352e-09
-5.327406e-09
-5.4774334e-09
4.7079863e-09
4.8720558e-09
-4.5904827e-09
-4.8105849e-09
3.7871905e-09
3.9845745e-09
-3.685092e-09
-3.9248705e-09
2.9067026e-09
3.1070576e-09
-2.8201308e-09
-3.0509326e-09
2.1897883e-09
2.37564e-09
-2.1164867e-09
-2.323201e-09
1.6855426e-09
1.8561747e-09
-1.6222984e-09
-1.8065699e-09
1.3990111e-09
1.5630177e-09
-1.3423758e-09
-1.5149796e-09
1.312588e-09
1.4800319e-09
-1.2594039e-09
-1.4322358e-09
1.3990692e-09
1.5835146e-09
-1.3469595e-09
-1.5348337e-09
1.631746e-09
1.8523394e-09
-1.5789914e-09
-1.8018796e-09
1.995795e-09
2.2721502e-09
-1.9411583e-09
-2.2192551e-09
2.4845302e-09
2.8398227e-09
-2.4272302e-09
-2.7840923e-09
3.1003583e-09
3.5629845e-09
-3.039958e-09
-3.5042162e-09
3.8520617e-09
4.4578808e-09
-3.7883997e-09
-4.396017e-09
4.7529761e-09
5.5476978e-09
-4.686102e-09
-5.4827839e-09
5.8166979e-09
6.8592079e-09
-5.7468231e-09
-6.791361e-09
7.0531139e-09
8.4195315e-09
-6.9805801e-09
-8.3489236e-09
8.4640343e-09
1.0251729e-08
-8.389314e-09
-1.0178583e-08
1.0039404e-08
1.2374443e-08
-9.9631096e-09
-1.229904e-08
1.1748905e-08
1.4785435e-08
-1.1671804e-08
-1.470813e-08
1.3535215e-08
1.7467627e-08
-1.3458262e-08
-1.7388886e-08
1.5314864e-08
2.0375832e-08
-1.5239211e-08
-2.0296266e-08
1.6967247e-08
2.3428524e-08
-1.6894268e-08
-2.3348923e-08
1.833299e-08
2.6504311e-08
-1.8264276e-08
-2.6425651e-08
1.9213757e-08
2.9438177e-08
-1.915109e-08
-2.9361639e-08
1.9371358e-08
3.2006131e-08
-1.9316655e-08
-3.1933087e-08
1.8589375e-08
3.3930277e-08
-1.8544582e-08
-3.3862221e-08
1.6611701e-08
3.4926392e-08
-1.6578648e-08
-3.4864877e-08
1.3252198e-08
3.4635376e-08
-1.3232398e-08
-3.4581828e-08
8.4205461e-09
3.2649095e-08
-8.4149615e-09
-3.2604669e-08
2.0510284e-09
2.8764637e-08
-2.0598189e-09
-2.8730003e-08
-5.6478718e-09
2.2756944e-08
5.625585e-09
-2.2732111e-08
-1.4327369e-08
1.4423815e-08
1.4293675e-08
-1.4408009e-08
-2.3389716e-08
3.6797195e-09
2.3347964e-08
-3.6712838e-09
-3.1998642e-08
-9.0721213e-09
3.1953287e-08
9.075608e-09
-3.9447318e-08
-2.3237946e-08
3.9403516e-08
2.323939e-08
-4.4665987e-08
-3.7900314e-08
4.4629052e-08
3.7902568e-08
-4.6863239e-08
-5.2040203e-08
4.6838566e-08
5.2045469e-08
-4.5624228e-08
-6.3683294e-08
4.5613251e-08
6.3692229e-08
-3.9795749e-08
-7.2419008e-08
3.9796006e-08
7.2430207e-08
-3.0455091e-08
-7.5426667e-08
3.0464285e-08
7.5436791e-08
-1.9274411e-08
-7.1879318e-08
1.9285921e-08
7.1883526e-08
-6.0505525e-09
-6.1389619e-08
6.0545621e-09
6.1383481e-08
6.9680751e-09
-4.3112136e-08
-6.9790235e-09
4.3095181e-08
1.7379136e-08
-2.1624206e-08
-1.7410303e-08
2.160251e-08
2.3538452e-08
1.1116356e-09
-2.3594789e-08
-1.1009524e-09
2.1820298e-08
1.5281126e-08
-2.163722e-08
-1.5224733e-08
1.4201758e-08
1.7495353e-08
-1.3698863e-08
-1.7440007e-08
4.295432e-09
4.3390387e-09
-4.8409893e-09
-5.0949743e-09
4.6075937e-09
5.5066619e-09
-4.794829e-09
-5.9407305e-09
5.939755e-10
2.0123502e-09
-8.1520432e-10
-2.2931844e-09
-6.5011586e-09
-5.5170319e-09
6.1722813e-09
5.2464606e-09
-1.1913489e-08
-1.1739467e-08
1.1564862e-08
1.1574083e-08
-1.2321619e-08
-1.2964709e-08
1.2058246e-08
1.2860173e-08
-8.9419087e-09
-9.9798478e-09
8.7774313e-09
9.9086784e-09
-4.2200469e-09
-5.249132e-09
4.1484122e-09
5.2327075e-09
1.4851603e-10
-6.581187e-10
-1.4811141e-10
6.8853905e-10
3.3135455e-09
2.8051659e-09
-3.2666074e-09
-2.7426957e-09
5.0870583e-09
4.857782e-09
-5.016389e-09
-4.7775333e-09
5.6623536e-09
5.6482826e-09
-5.5848047e-09
-5.561998e-09
5.3936147e-09
5.5207551e-09
-5.3197795e-09
-5.436588e-09
4.6494851e-09
4.8507804e-09
-4.5847607e-09
-4.7733434e-09
3.7352053e-09
3.9644671e-09
-3.6811384e-09
-3.895431e-09
2.8624838e-09
3.0876417e-09
-2.8179405e-09
-3.0265519e-09
2.1527312e-09
2.3619552e-09
-2.1151188e-09
-2.3071021e-09
1.6567885e-09
1.8470662e-09
-1.6232517e-09
-1.7962127e-09
1.3772956e-09
1.5570495e-09
-1.3451865e-09
-1.5078877e-09
1.295657e-09
1.4779207e-09
-1.2627389e-09
-1.4283545e-09
1.3849369e-09
1.5849233e-09
-1.3496381e-09
-1.5332563e-09
1.6207122e-09
1.8564977e-09
-1.5819866e-09
-1.8014659e-09
1.9865707e-09
2.2789754e-09
-1.9437859e-09
-2.2196888e-09
2.4763953e-09
2.8494587e-09
-2.4293129e-09
-2.78534e-09
3.0926242e-09
3.5754412e-09
-3.0412745e-09
-3.5061688e-09
3.8443694e-09
4.4733346e-09
-3.7889687e-09
-4.3987946e-09
4.7448225e-09
5.5661279e-09
-4.6857179e-09
-5.4863832e-09
5.807532e-09
6.8808072e-09
-5.7451624e-09
-6.796089e-09
7.0424434e-09
8.4443438e-09
-6.9773145e-09
-8.3550613e-09
8.4514277e-09
1.0280273e-08
-8.3841031e-09
-1.0187044e-08
1.0023608e-08
1.2403789e-08
-9.9546996e-09
-1.2307481e-08
1.1730058e-08
1.4816486e-08
-1.166023e-08
-1.4718263e-08
1.3512409e-08
1.7499971e-08
-1.3442382e-08
-1.7401336e-08
1.5287242e-08
2.0407703e-08
-1.5217796e-08
-2.0310528e-08
1.6931782e-08
2.3456756e-08
-1.686376e-08
-2.3363298e-08
1.8286696e-08
2.6527617e-08
-1.8220997e-08
-2.6440504e-08
1.9147025e-08
2.9448276e-08
-1.9084583e-08
-2.9370425e-08
1.9306792e-08
3.2001084e-08
-1.924854e-08
-3.1935556e-08
1.8516341e-08
3.3907858e-08
-1.8463154e-08
-3.3857654e-08
1.6519639e-08
3.4873069e-08
-1.647224e-08
-3.4840872e-08
1.3152851e-08
3.4559709e-08
-1.3111699e-08
-3.4547502e-08
8.3258115e-09
3.2637402e-08
-8.2909729e-09
-3.2646094e-08
1.8509402e-09
2.86261e-08
-1.8219509e-09
-2.8655179e-08
-5.7302364e-09
2.248989e-08
5.7544676e-09
-2.2537076e-08
-1.4290758e-08
1.4138329e-08
1.4311971e-08
-1.4199403e-08
-2.34549e-08
3.3760213e-09
2.3475392e-08
-3.4449151e-09
-3.216492e-08
-9.2813936e-09
3.2187295e-08
9.2122796e-09
-3.9493003e-08
-2.3460305e-08
3.9519697e-08
2.339939e-08
-4.4703896e-08
-3.8241194e-08
4.4736168e-08
3.8196615e-08
-4.6897592e-08
-5.2269951e-08
4.6934439e-08
5.2248243e-08
-4.5550068e-08
-6.4901362e-08
4.5589746e-08
6.4906238e-08
-3.9732406e-08
-7.2505297e-08
3.9770484e-08
7.253631e-08
-3.0414203e-08
-7.5478244e-08
3.0440044e-08
7.5529926e-08
-1.926767e-08
-7.1884415e-08
1.9269632e-08
7.1947291e-08
-6.0865872e-09
-6.0229876e-08
6.0571072e-09
6.0293088e-08
6.8855751e-09
-4.4115102e-08
-6.9467166e-09
4.4170784e-08
1.8362545e-08
-2.1481898e-08
-1.8442481e-08
2.1532953e-08
2.3379429e-08
1.2235832e-09
-2.3412323e-08
-1.1482755e-09
2.1691225e-08
1.5337029e-08
-2.1605474e-08
-1.5249505e-08
1.4143013e-08
1.7508084e-08
-1.4033799e-08
-1.7492217e-08
)
;

boundaryField
{
    movingWall
    {
        type            calculated;
        value           nonuniform List<scalar> 
16
(
1.2574977e-08
1.2544028e-08
1.2574977e-08
1.2544028e-08
1.8071235e-08
1.8057897e-08
1.8071235e-08
1.8057897e-08
-1.200566e-08
-1.2478741e-08
-1.200566e-08
-1.2478741e-08
-1.8030304e-08
-1.8102032e-08
-1.8030304e-08
-1.8102032e-08
)
;
    }
    CPLReceiveMD
    {
        type            calculated;
        value           nonuniform List<scalar> 
16
(
-6.8330607e-09
4.0618591e-09
5.6830991e-09
4.1565192e-09
4.3696659e-09
4.187622e-09
4.7105197e-09
4.1484059e-09
-5.74212e-09
-5.0257062e-09
-5.8835482e-09
-5.0440661e-09
-6.2627118e-09
-5.0469292e-09
-5.9278785e-09
-5.0282979e-09
)
;
    }
    streamwiseIn
    {
        type            cyclic;
    }
    streamwiseOut
    {
        type            cyclic;
    }
    front
    {
        type            cyclic;
    }
    back
    {
        type            cyclic;
    }
}


// ************************************************************************* //
