/*--------------------------------*- C++ -*----------------------------------*\
| =========                 |                                                 |
| \\      /  F ield         | OpenFOAM: The Open Source CFD Toolbox           |
|  \\    /   O peration     | Version:  3.0.1                                 |
|   \\  /    A nd           | Web:      www.OpenFOAM.org                      |
|    \\/     M anipulation  |                                                 |
\*---------------------------------------------------------------------------*/
FoamFile
{
    version     2.0;
    format      ascii;
    class       volVectorField;
    location    "400";
    object      U;
}
// * * * * * * * * * * * * * * * * * * * * * * * * * * * * * * * * * * * * * //

dimensions      [0 1 -1 0 0 0 0];

internalField   nonuniform List<vector> 
480
(
(0.001829845 4.8312834e-09 -9.6882566e-11)
(0.0018297757 5.6029027e-09 -8.4667641e-13)
(0.0018297755 -5.0153138e-09 -5.1605562e-11)
(0.0018298365 -5.6222127e-09 1.8958896e-11)
(0.0066434232 7.9604393e-09 -1.2040937e-10)
(0.0066434192 1.0546519e-08 -1.0488577e-11)
(0.006643421 -7.8261043e-09 -7.5019074e-11)
(0.0066433956 -1.0902249e-08 2.30252e-11)
(0.0056043655 9.5138995e-09 -1.110199e-10)
(0.0056043106 1.484754e-08 -2.3041354e-11)
(0.0056043106 -9.0746187e-09 -7.9390492e-11)
(0.005604354 -1.5054524e-08 1.1782555e-11)
(0.0047524168 1.0996186e-08 -9.9618133e-11)
(0.0047524508 1.7959455e-08 -3.4117166e-11)
(0.0047524521 -1.084283e-08 -7.76235e-11)
(0.0047524037 -1.7806662e-08 -2.5893831e-12)
(0.0045921483 5.6105562e-09 -8.5076609e-11)
(0.0045921792 1.2904846e-08 -4.0524732e-11)
(0.0045921795 -5.5384858e-09 -6.8760992e-11)
(0.0045921488 -1.292869e-08 -1.4685737e-11)
(0.0050639647 4.4497323e-09 -7.0523099e-11)
(0.0050639778 1.0847334e-08 -4.2619331e-11)
(0.0050639775 -4.5642349e-09 -5.9245402e-11)
(0.0050639669 -1.1022388e-08 -2.3187848e-11)
(0.006008213 5.2784136e-09 -5.5456219e-11)
(0.0060082106 1.1288819e-08 -4.1222785e-11)
(0.00600821 -5.4932297e-09 -4.8767704e-11)
(0.0060082148 -1.1631584e-08 -2.7609688e-11)
(0.007278608 7.5419684e-09 -4.1585479e-11)
(0.0072785946 1.3448993e-08 -3.7535799e-11)
(0.0072785936 -7.8815139e-09 -3.8439861e-11)
(0.007278609 -1.3968324e-08 -2.8668507e-11)
(0.0087771573 1.062392e-08 -2.9743621e-11)
(0.0087771381 1.666105e-08 -3.2638202e-11)
(0.0087771367 -1.1131512e-08 -2.9180244e-11)
(0.0087771574 -1.7368436e-08 -2.7366091e-11)
(0.010450449 1.3932209e-08 -2.0049689e-11)
(0.010450429 2.0325722e-08 -2.7339985e-11)
(0.010450427 -1.4638461e-08 -2.137221e-11)
(0.010450448 -2.1227735e-08 -2.4626604e-11)
(0.012275519 1.707811e-08 -1.271112e-11)
(0.0122755 2.4018672e-08 -2.2193932e-11)
(0.012275497 -1.7996569e-08 -1.5092581e-11)
(0.012275518 -2.5113905e-08 -2.1191496e-11)
(0.014247328 1.9858856e-08 -7.3647461e-12)
(0.014247311 2.7507378e-08 -1.7522356e-11)
(0.014247308 -2.0988959e-08 -1.0269395e-11)
(0.014247326 -2.8784675e-08 -1.7583193e-11)
(0.016370677 2.2172062e-08 -3.668942e-12)
(0.016370664 3.0669884e-08 -1.3482389e-11)
(0.01637066 -2.3498143e-08 -6.6940051e-12)
(0.016370674 -3.2109461e-08 -1.4143208e-11)
(0.018655904 2.3954356e-08 -1.2799974e-12)
(0.018655896 3.3426288e-08 -1.0119276e-11)
(0.018655891 -2.5446537e-08 -4.1555763e-12)
(0.018655902 -3.499969e-08 -1.1071908e-11)
(0.021116846 2.5158082e-08 1.441363e-13)
(0.021116843 3.5711095e-08 -7.4068984e-12)
(0.021116837 -2.6778407e-08 -2.4309185e-12)
(0.021116844 -3.7383248e-08 -8.4469394e-12)
(0.023769768 2.5756292e-08 8.9128809e-13)
(0.02376977 3.7476427e-08 -5.281024e-12)
(0.023769763 -2.7463314e-08 -1.3118526e-12)
(0.023769766 -3.9210507e-08 -6.2819682e-12)
(0.026632569 2.5754491e-08 1.1912245e-12)
(0.026632576 3.8705619e-08 -3.6601211e-12)
(0.026632569 -2.7506756e-08 -6.2539876e-13)
(0.026632567 -4.0465339e-08 -4.550502e-12)
(0.029724016 2.5195241e-08 1.2175744e-12)
(0.029724029 3.9420711e-08 -2.4490703e-12)
(0.02972402 -2.6953862e-08 -2.3368479e-13)
(0.029724015 -4.117231e-08 -3.2042122e-12)
(0.033063028 2.4152286e-08 1.093426e-12)
(0.033063045 3.9679057e-08 -1.5793629e-12)
(0.033063036 -2.5882599e-08 -3.3514124e-14)
(0.033063028 -4.1392764e-08 -2.1865686e-12)
(0.036668097 2.2717423e-08 9.0207882e-13)
(0.036668119 3.9561527e-08 -9.6295461e-13)
(0.036668108 -2.4389924e-08 4.9848407e-14)
(0.036668098 -4.1212172e-08 -1.4366832e-12)
(0.040556905 2.0985503e-08 6.9560684e-13)
(0.040556931 3.9156369e-08 -5.4121655e-13)
(0.040556919 -2.2576269e-08 6.7525457e-14)
(0.040556908 -4.0723688e-08 -8.9854129e-13)
(0.044746138 1.9041999e-08 5.0368812e-13)
(0.044746167 3.854396e-08 -2.6183256e-13)
(0.044746154 -2.0532754e-08 5.2685088e-14)
(0.044746142 -4.0012506e-08 -5.2259493e-13)
(0.04925145 1.6955411e-08 3.4087314e-13)
(0.049251482 3.7786132e-08 -8.4195025e-14)
(0.049251467 -1.8333345e-08 2.5705815e-14)
(0.049251456 -3.9145135e-08 -2.6825812e-13)
(0.054087535 1.4774768e-08 2.1175432e-13)
(0.054087569 3.6921245e-08 2.2072206e-14)
(0.054087554 -1.6032153e-08 -2.0727879e-15)
(0.054087543 -3.8164297e-08 -1.0297022e-13)
(0.059268239 1.2531149e-08 1.1517065e-13)
(0.059268276 3.5963904e-08 7.9841778e-14)
(0.059268259 -1.366482e-08 -2.508961e-14)
(0.059268249 -3.7088544e-08 -1.1751172e-15)
(0.064806671 1.0241709e-08 4.6988064e-14)
(0.064806711 3.4908074e-08 1.0581111e-13)
(0.064806692 -1.1252447e-08 -4.1338758e-14)
(0.064806683 -3.5915301e-08 5.6662319e-14)
(0.070715289 7.9147356e-09 1.8962699e-15)
(0.070715332 3.3732053e-08 1.1187825e-13)
(0.070715312 -8.8066005e-09 -5.0846536e-14)
(0.070715304 -3.4625784e-08 8.5089173e-14)
(0.077005945 5.5546317e-09 -2.5470876e-14)
(0.077005991 3.2404024e-08 1.0631838e-13)
(0.077005969 -6.3342723e-09 -5.462605e-14)
(0.077005962 -3.3190534e-08 9.4660246e-14)
(0.083689881 3.1661105e-09 -3.9938381e-14)
(0.083689931 3.0887279e-08 9.4704301e-14)
(0.083689908 -3.842091e-09 -5.4049386e-14)
(0.083689902 -3.1574633e-08 9.2828658e-14)
(0.090777695 7.5730192e-10 -4.552783e-14)
(0.090777748 2.9144632e-08 8.0647267e-14)
(0.090777724 -1.3394674e-09 -5.0488832e-14)
(0.090777719 -2.9742133e-08 8.4697559e-14)
(0.098279261 -1.6582889e-09 -4.539617e-14)
(0.098279318 2.7141829e-08 6.6362424e-14)
(0.098279293 1.159395e-09 -4.51366e-14)
(0.09827929 -2.7659508e-08 7.3635908e-14)
(0.10620364 -4.0608486e-09 -4.1900479e-14)
(0.1062037 2.4850011e-08 5.3110877e-14)
(0.10620367 3.6344902e-09 -3.8930174e-14)
(0.10620367 -2.5298157e-08 6.1768909e-14)
(0.11455895 -6.4241647e-09 -3.6719758e-14)
(0.11455902 2.2247366e-08 4.1513874e-14)
(0.11455899 6.0598403e-09 -3.2552267e-14)
(0.11455899 -2.2636123e-08 5.03568e-14)
(0.12335227 -8.7161766e-09 -3.0985285e-14)
(0.12335234 1.9320182e-08 3.1787098e-14)
(0.12335231 8.4039725e-09 -2.6458876e-14)
(0.12335232 -1.9659204e-08 4.0073728e-14)
(0.13258951 -1.0899987e-08 -2.5397957e-14)
(0.13258958 1.6063486e-08 2.3898496e-14)
(0.13258955 1.0630845e-08 -2.0931461e-14)
(0.13258956 -1.6361662e-08 3.1212995e-14)
(0.14227526 -1.2935196e-08 -2.035496e-14)
(0.14227534 1.2481418e-08 1.7680073e-14)
(0.14227531 1.2701104e-08 -1.6110333e-14)
(0.14227531 -1.2746668e-08 2.3832047e-14)
(0.15241271 -1.4779458e-08 -1.6037502e-14)
(0.15241279 8.5874912e-09 1.2900558e-14)
(0.15241276 1.457357e-08 -1.2039573e-14)
(0.15241277 -8.8266287e-09 1.7849038e-14)
(0.16300353 -1.6390197e-08 -1.2487355e-14)
(0.16300361 4.4047931e-09 9.3151721e-15)
(0.16300358 1.6206883e-08 -8.7015346e-15)
(0.16300359 -4.6234496e-09 1.3111058e-14)
(0.17404775 -1.7726433e-08 -9.6606865e-15)
(0.17404784 -3.3809839e-11 6.6835587e-15)
(0.17404781 1.756127e-08 -6.0357699e-15)
(0.17404782 -1.6880489e-10 9.4369308e-15)
(0.18554372 -1.8750698e-08 -7.4686842e-15)
(0.18554381 -4.6854315e-09 4.7931865e-15)
(0.18554378 1.8600405e-08 -3.9621628e-15)
(0.1855438 4.4955705e-09 6.6472924e-15)
(0.19748798 -1.9431018e-08 -5.801359e-15)
(0.19748807 -9.4968818e-09 3.4586684e-15)
(0.19748803 1.9293342e-08 -2.3936583e-15)
(0.19748806 9.3175435e-09 4.5722327e-15)
(0.20987521 -1.974293e-08 -4.5484254e-15)
(0.20987531 -1.4404332e-08 2.5308878e-15)
(0.20987527 1.9616499e-08 -1.2479318e-15)
(0.2098753 1.4234209e-08 3.0649343e-15)
(0.22269823 -1.967151e-08 -3.6105926e-15)
(0.22269832 -1.9332927e-08 1.8927831e-15)
(0.22269828 1.9555647e-08 -4.4218619e-16)
(0.22269831 1.9171469e-08 1.9925377e-15)
(0.23594788 -1.9213338e-08 -2.896446e-15)
(0.23594797 -2.4196338e-08 1.4511517e-15)
(0.23594793 1.9107865e-08 9.3701414e-17)
(0.23594797 2.4043566e-08 1.2467087e-15)
(0.24961307 -1.8378329e-08 -2.3366662e-15)
(0.24961316 -2.8896275e-08 1.1410882e-15)
(0.24961312 1.8283361e-08 4.1913997e-16)
(0.24961316 2.8752576e-08 7.4103434e-16)
(0.26368075 -1.7191305e-08 -1.8821984e-15)
(0.26368084 -3.3321964e-08 9.1232464e-16)
(0.2636808 1.7107054e-08 5.9024394e-16)
(0.26368084 3.3187896e-08 4.0904059e-16)
(0.27813592 -1.5693131e-08 -1.4878857e-15)
(0.27813601 -3.7349666e-08 7.377046e-16)
(0.27813597 1.5619742e-08 6.4419514e-16)
(0.27813602 3.7225778e-08 1.9202059e-16)
(0.29296167 -1.3941199e-08 -1.1305828e-15)
(0.29296175 -4.0842363e-08 5.9201156e-16)
(0.29296171 1.3878636e-08 6.1833278e-16)
(0.29296176 4.072905e-08 5.0690837e-17)
(0.30813918 -1.200895e-08 -7.9823191e-16)
(0.30813926 -4.3649899e-08 4.6294227e-16)
(0.30813922 1.1956951e-08 5.400643e-16)
(0.30813927 4.3547315e-08 -3.7011401e-17)
(0.32364786 -9.9840614e-09 -4.9416981e-16)
(0.32364793 -4.5610098e-08 3.5049416e-16)
(0.32364789 9.9421767e-09 4.3643604e-16)
(0.32364795 4.5518128e-08 -1.0087796e-16)
(0.33946535 -7.9648507e-09 -2.2479938e-16)
(0.33946542 -4.6551753e-08 2.5354459e-16)
(0.33946537 7.9325463e-09 3.2091338e-16)
(0.33946543 4.6470066e-08 -1.4778284e-16)
(0.35556765 -6.0543823e-09 -7.4058412e-19)
(0.35556771 -4.6300968e-08 1.7157655e-16)
(0.35556766 6.0311824e-09 1.9552113e-16)
(0.35556772 4.6229119e-08 -1.6843879e-16)
(0.37192922 -4.3518138e-09 1.5858496e-16)
(0.37192927 -4.4693345e-08 9.8077526e-17)
(0.37192922 4.3374003e-09 6.24965e-17)
(0.37192928 4.4630911e-08 -1.4801615e-16)
(0.3885231 -2.9406913e-09 2.253125e-16)
(0.38852314 -4.1595981e-08 4.4203142e-17)
(0.38852308 2.9348738e-09 -7.915062e-17)
(0.38852315 4.154267e-08 -7.6268391e-17)
(0.40532103 -1.8744234e-09 1.926993e-16)
(0.40532106 -3.6942836e-08 7.7674222e-18)
(0.405321 1.8768783e-09 -2.3960024e-16)
(0.40532106 3.6898541e-08 6.4115931e-17)
(0.42229362 -1.1607425e-09 6.5523135e-17)
(0.42229364 -3.0780989e-08 -4.9622676e-18)
(0.42229358 1.1706919e-09 -3.9119076e-16)
(0.42229364 3.0745689e-08 2.5512042e-16)
(0.4394105 -7.4859669e-10 -1.133309e-16)
(0.4394105 -2.332039e-08 6.5101733e-18)
(0.43941045 7.6462176e-10 -5.0831247e-16)
(0.43941051 2.3294303e-08 4.4751706e-16)
(0.45664046 -5.2802278e-10 -2.6953912e-16)
(0.45664045 -1.5052846e-08 2.9937649e-17)
(0.4566404 5.4918242e-10 -5.5177806e-16)
(0.45664045 1.5035219e-08 5.6674728e-16)
(0.47395165 -3.4298161e-10 -3.1832512e-16)
(0.47395164 -7.100793e-09 4.7501641e-17)
(0.4739516 3.133519e-10 -4.6048889e-16)
(0.47395164 7.0912706e-09 5.2974113e-16)
(0.49131177 -1.5748201e-10 -1.7942019e-16)
(0.49131177 -1.8588612e-09 3.4213883e-17)
(0.49131175 1.3677489e-10 -1.9028061e-16)
(0.49131177 1.8523333e-09 2.671439e-16)
(0.0018298396 4.6122566e-09 6.1585341e-10)
(0.0018297697 5.5751446e-09 7.1850445e-11)
(0.0018297692 -4.8112521e-09 4.9920568e-11)
(0.0018298304 -5.4561885e-09 1.8116943e-11)
(0.0066433934 7.3423137e-09 6.2579665e-10)
(0.0066433919 9.8701876e-09 1.5503561e-10)
(0.0066433932 -7.291552e-09 8.0792367e-11)
(0.0066433665 -1.0150022e-08 9.6323238e-11)
(0.0056043563 9.368783e-09 4.3396555e-10)
(0.0056043019 1.4287721e-08 1.4384882e-10)
(0.0056043016 -8.9795646e-09 7.2449127e-11)
(0.0056043447 -1.4601829e-08 1.0478661e-10)
(0.0047524009 1.135941e-08 2.2146484e-10)
(0.0047524367 1.7865404e-08 1.0376733e-10)
(0.0047524377 -1.1207141e-08 3.7372073e-11)
(0.0047523887 -1.7780995e-08 7.4260015e-11)
(0.0045921467 5.9773342e-09 7.9499593e-11)
(0.0045921783 1.291727e-08 6.0214762e-11)
(0.0045921784 -5.8338231e-09 1.1164203e-11)
(0.0045921481 -1.2958668e-08 3.7947007e-11)
(0.0050639655 4.7182042e-09 -1.8971833e-11)
(0.0050639788 1.0966743e-08 2.72236e-11)
(0.0050639784 -4.7091561e-09 -1.5095211e-11)
(0.0050639684 -1.1109286e-08 1.0815879e-11)
(0.0060082138 5.5036687e-09 -6.2466736e-11)
(0.0060082115 1.1450904e-08 7.5220409e-12)
(0.0060082108 -5.5892319e-09 -3.056044e-11)
(0.0060082162 -1.1724163e-08 -3.9853877e-12)
(0.0072786083 7.7027514e-09 -7.3699393e-11)
(0.0072785951 1.3596737e-08 -2.9915505e-12)
(0.0072785939 -7.9385882e-09 -3.7240406e-11)
(0.0072786098 -1.4036239e-08 -1.062924e-11)
(0.008777157 1.0719824e-08 -7.1293281e-11)
(0.0087771379 1.6770763e-08 -8.3111851e-12)
(0.0087771363 -1.1158593e-08 -3.8592627e-11)
(0.0087771573 -1.7409608e-08 -1.3063868e-11)
(0.010450448 1.3976756e-08 -6.3713632e-11)
(0.010450428 2.0397844e-08 -1.0792096e-11)
(0.010450425 -1.4651784e-08 -3.6789039e-11)
(0.010450448 -2.1256289e-08 -1.3506789e-11)
(0.012275518 1.7081701e-08 -5.4812989e-11)
(0.012275498 2.406354e-08 -1.1620507e-11)
(0.012275495 -1.8006796e-08 -3.3203599e-11)
(0.012275516 -2.5146461e-08 -1.2986314e-11)
(0.014247326 1.9834214e-08 -4.5846754e-11)
(0.014247309 2.7537031e-08 -1.1407622e-11)
(0.014247306 -2.0998879e-08 -2.8777442e-11)
(0.014247324 -2.8833212e-08 -1.1934369e-11)
(0.016370674 2.2131779e-08 -3.7489146e-11)
(0.016370661 3.069377e-08 -1.0552556e-11)
(0.016370657 -2.3507952e-08 -2.4107075e-11)
(0.016370672 -3.2177471e-08 -1.0550875e-11)
(0.018655902 2.3906317e-08 -3.0025825e-11)
(0.018655894 3.345002e-08 -9.3524119e-12)
(0.018655889 -2.5456794e-08 -1.9648941e-11)
(0.018655899 -3.5086448e-08 -8.981975e-12)
(0.021116843 2.5106403e-08 -2.3579213e-11)
(0.02111684 3.5737117e-08 -8.0282943e-12)
(0.021116834 -2.6788303e-08 -1.5651881e-11)
(0.021116841 -3.7487479e-08 -7.4692378e-12)
(0.023769765 2.5702967e-08 -1.8180047e-11)
(0.023769767 3.7505118e-08 -6.7256515e-12)
(0.02376976 -2.7471708e-08 -1.2221222e-11)
(0.023769763 -3.932866e-08 -6.1155209e-12)
(0.026632565 2.5700423e-08 -1.3783132e-11)
(0.026632573 3.8735925e-08 -5.5192303e-12)
(0.026632566 -2.7512916e-08 -9.3765888e-12)
(0.026632564 -4.059271e-08 -4.9551319e-12)
(0.029724013 2.5140792e-08 -1.0290708e-11)
(0.029724026 3.9451161e-08 -4.4728746e-12)
(0.029724017 -2.6957568e-08 -7.0831302e-12)
(0.029724012 -4.1304098e-08 -3.9891576e-12)
(0.033063024 2.4097543e-08 -7.5758482e-12)
(0.033063042 3.9709025e-08 -3.5693129e-12)
(0.033063033 -2.5884032e-08 -5.275558e-12)
(0.033063025 -4.1524966e-08 -3.19539e-12)
(0.036668093 2.2662312e-08 -5.5051076e-12)
(0.036668116 3.9591059e-08 -2.8220641e-12)
(0.036668105 -2.4389498e-08 -3.8787573e-12)
(0.036668095 -4.1341593e-08 -2.5383167e-12)
(0.040556902 2.0929865e-08 -3.952541e-12)
(0.040556928 3.9185446e-08 -2.2154761e-12)
(0.040556916 -2.2574497e-08 -2.8180548e-12)
(0.040556905 -4.0847499e-08 -2.0103389e-12)
(0.044746135 1.8985675e-08 -2.8064616e-12)
(0.044746164 3.8572499e-08 -1.731233e-12)
(0.044746151 -2.0530161e-08 -2.025161e-12)
(0.044746139 -4.0128533e-08 -1.5903189e-12)
(0.049251447 1.689834e-08 -1.9719921e-12)
(0.049251479 3.7814211e-08 -1.3481532e-12)
(0.049251464 -1.8330417e-08 -1.4407245e-12)
(0.049251453 -3.9252024e-08 -1.2564097e-12)
(0.054087532 1.4717033e-08 -1.372098e-12)
(0.054087567 3.6949027e-08 -1.0463892e-12)
(0.054087551 -1.6029313e-08 -1.0154434e-12)
(0.05408754 -3.8261384e-08 -9.9079819e-13)
(0.059268236 1.247299e-08 -9.4594113e-13)
(0.059268274 3.5991557e-08 -8.0945358e-13)
(0.059268256 -1.3662423e-08 -7.0960753e-13)
(0.059268246 -3.7175694e-08 -7.7937819e-13)
(0.064806668 1.0183517e-08 -6.465687e-13)
(0.064806708 3.4935704e-08 -6.239106e-13)
(0.06480669 -1.1250799e-08 -4.9207207e-13)
(0.064806681 -3.5992747e-08 -6.1110345e-13)
(0.070715286 7.8570192e-09 -4.3850888e-13)
(0.070715329 3.3759674e-08 -4.7899046e-13)
(0.070715309 -8.8059734e-09 -3.3894211e-13)
(0.070715301 -3.4693991e-08 -4.7730502e-13)
(0.077005942 5.4979726e-09 -2.9538889e-13)
(0.077005988 3.2431538e-08 -3.6613966e-13)
(0.077005966 -6.3349254e-09 -2.3220774e-13)
(0.07700596 -3.3250074e-08 -3.7113858e-13)
(0.083689878 3.1111196e-09 -1.9791042e-13)
(0.083689928 3.0914475e-08 -2.7857177e-13)
(0.083689905 -3.8442874e-09 -1.5850246e-13)
(0.0836899 -3.1626096e-08 -2.8715212e-13)
(0.090777692 7.0457713e-10 -1.3213159e-13)
(0.090777746 2.917119e-08 -2.108963e-13)
(0.090777721 -1.343486e-09 -1.0804148e-13)
(0.090777717 -2.9786059e-08 -2.2097133e-13)
(0.098279259 -1.7081974e-09 -8.8108186e-14)
(0.098279316 2.7167338e-08 -1.5883444e-13)
(0.09827929 1.1532514e-09 -7.3772658e-14)
(0.098279288 -2.7696342e-08 -1.6905725e-13)
(0.10620364 -4.107457e-09 -5.8844264e-14)
(0.1062037 2.4873988e-08 -1.1899113e-13)
(0.10620367 3.6258913e-09 -5.0666359e-14)
(0.10620367 -2.5328235e-08 -1.2853753e-13)
(0.11455895 -6.4670646e-09 -3.9485929e-14)
(0.11455901 2.2269277e-08 -8.8671296e-14)
(0.11455898 6.0484316e-09 -3.5181577e-14)
(0.11455899 -2.2659662e-08 -9.7094055e-14)
(0.12335227 -8.7550398e-09 -2.6693686e-14)
(0.12335234 1.9339465e-08 -6.5738894e-14)
(0.12335231 8.3893815e-09 -2.4839622e-14)
(0.12335232 -1.9676317e-08 -7.2832566e-14)
(0.13258951 -1.093456e-08 -1.8215674e-14)
(0.13258958 1.6079563e-08 -4.8507492e-14)
(0.13258955 1.061269e-08 -1.793036e-14)
(0.13258956 -1.6372372e-08 -5.4238201e-14)
(0.14227526 -1.296529e-08 -1.2550238e-14)
(0.14227534 1.2493719e-08 -3.5647897e-14)
(0.1422753 1.2679005e-08 -1.3294644e-14)
(0.14227531 -1.2750931e-08 -4.0087588e-14)
(0.15241271 -1.4804935e-08 -8.7065786e-15)
(0.15241279 8.5954673e-09 -2.611891e-14)
(0.15241276 1.4547164e-08 -1.0150576e-14)
(0.15241277 -8.8243583e-09 -2.9396642e-14)
(0.16300353 -1.6410957e-08 -6.0504888e-15)
(0.16300361 4.4079257e-09 -1.9106542e-14)
(0.16300358 1.6175834e-08 -7.9736564e-15)
(0.16300359 -4.6145437e-09 -2.1381403e-14)
(0.17404775 -1.7742399e-08 -4.1766313e-15)
(0.17404784 -3.5994719e-11 -1.3979075e-14)
(0.17404781 1.7525283e-08 -6.4192447e-15)
(0.17404782 -1.5316843e-10 -1.5423037e-14)
(0.18554372 -1.8761803e-08 -2.8292786e-15)
(0.18554381 -4.6933536e-09 -1.0248258e-14)
(0.18554378 1.8559239e-08 -5.2685077e-15)
(0.1855438 4.5180013e-09 -1.1034781e-14)
(0.19748798 -1.9437194e-08 -1.8505173e-15)
(0.19748807 -9.5108958e-09 -7.5454357e-15)
(0.19748803 1.924682e-08 -4.3747276e-15)
(0.19748806 9.3467795e-09 -7.8337794e-15)
(0.20987521 -1.9744104e-08 -1.1417033e-15)
(0.20987531 -1.4424717e-08 -5.5881234e-15)
(0.20987527 1.9564522e-08 -3.651533e-15)
(0.2098753 1.4270187e-08 -5.5203001e-15)
(0.22269823 -1.9667599e-08 -6.3698922e-16)
(0.22269832 -1.9359876e-08 -4.1684354e-15)
(0.22269828 1.9498208e-08 -3.0425075e-15)
(0.22269831 1.9214035e-08 -3.869234e-15)
(0.23594788 -1.9204256e-08 -2.9672403e-16)
(0.23594797 -2.4229947e-08 -3.1321403e-15)
(0.23594793 1.9045058e-08 -2.5141999e-15)
(0.23594797 2.4092453e-08 -2.6998722e-15)
(0.24961307 -1.8364002e-08 -8.7991714e-17)
(0.24961316 -2.8936534e-08 -2.3686737e-15)
(0.24961312 1.8215397e-08 -2.0510129e-15)
(0.24961316 2.88074e-08 -1.8763153e-15)
(0.26368075 -1.7171695e-08 1.2787307e-17)
(0.26368084 -3.3368746e-08 -1.7905339e-15)
(0.2636808 1.7034276e-08 -1.6455419e-15)
(0.26368085 3.3248144e-08 -1.3005454e-15)
(0.27813593 -1.5668285e-08 2.6770289e-17)
(0.27813601 -3.740272e-08 -1.342367e-15)
(0.27813597 1.5542639e-08 -1.2917276e-15)
(0.27813602 3.7290815e-08 -8.9449448e-16)
(0.29296167 -1.3911306e-08 -2.8033219e-17)
(0.29296175 -4.0901312e-08 -9.9434624e-16)
(0.29296171 1.3797855e-08 -9.8753911e-16)
(0.29296176 4.0798143e-08 -5.9940064e-16)
(0.30813919 -1.1974426e-08 -1.2712584e-16)
(0.30813926 -4.3714236e-08 -7.1318167e-16)
(0.30813922 1.1873308e-08 -7.3362093e-16)
(0.30813927 4.3619663e-08 -3.8098717e-16)
(0.32364786 -9.9456419e-09 -2.4932886e-16)
(0.32364794 -4.5679196e-08 -4.8480531e-16)
(0.32364789 9.856658e-09 -5.2515292e-16)
(0.32364795 4.5592919e-08 -2.1599827e-16)
(0.33946536 -7.9236782e-09 -3.7459141e-16)
(0.33946542 -4.6624879e-08 -2.9891908e-16)
(0.33946537 7.8463065e-09 -3.5466408e-16)
(0.33946543 4.6546527e-08 -9.3571943e-17)
(0.35556766 -6.012069e-09 -4.8706648e-16)
(0.35556771 -4.6377298e-08 -1.5227598e-16)
(0.35556766 5.9455408e-09 -2.082885e-16)
(0.35556772 4.6306562e-08 -9.1556896e-18)
(0.37192923 -4.3104366e-09 -5.554148e-16)
(0.37192928 -4.4771979e-08 -4.0281212e-17)
(0.37192922 4.2538541e-09 -7.3136772e-17)
(0.37192928 4.4708733e-08 1.9974919e-17)
(0.3885231 -2.9026774e-09 -5.459827e-16)
(0.38852314 -4.1675914e-08 3.1905302e-17)
(0.38852308 2.8551528e-09 5.8383287e-17)
(0.38852315 4.1620293e-08 -2.0357443e-17)
(0.40532104 -1.8423109e-09 -4.5135356e-16)
(0.40532106 -3.7022839e-08 6.9308897e-17)
(0.405321 1.8031244e-09 2.0134035e-16)
(0.40532107 3.6975281e-08 -1.3337942e-16)
(0.42229363 -1.1368571e-09 -2.7621694e-16)
(0.42229364 -3.0859084e-08 6.5939521e-17)
(0.42229358 1.1057019e-09 3.4685391e-16)
(0.42229365 3.0820455e-08 -3.0123051e-16)
(0.4394105 -7.3479761e-10 -5.320984e-17)
(0.43941051 -2.3393753e-08 3.1579953e-17)
(0.43941045 7.1215717e-10 4.708018e-16)
(0.43941051 2.3365643e-08 -4.8101553e-16)
(0.45664046 -5.2481926e-10 1.4985204e-16)
(0.45664046 -1.5111028e-08 -1.4240249e-17)
(0.4566404 5.0958904e-10 5.2737718e-16)
(0.45664046 1.5095969e-08 -5.9643851e-16)
(0.47395165 -3.516779e-10 2.4824982e-16)
(0.47395164 -7.1509449e-09 -4.742722e-17)
(0.47395161 3.1483952e-10 4.5373139e-16)
(0.47395164 7.1518454e-09 -5.4845541e-16)
(0.49131177 -1.6232394e-10 1.599364e-16)
(0.49131177 -1.8678339e-09 -3.5132765e-17)
(0.49131175 1.4200895e-10 2.0275036e-16)
(0.49131177 1.870625e-09 -2.7396073e-16)
)
;

boundaryField
{
    movingWall
    {
        type            fixedValue;
        value           uniform (0.5 0 0);
    }
    CPLReceiveMD
    {
        type            fixedValue;
        value           uniform (-0.031951714 0 0);
    }
    streamwiseIn
    {
        type            cyclic;
    }
    streamwiseOut
    {
        type            cyclic;
    }
    front
    {
        type            cyclic;
    }
    back
    {
        type            cyclic;
    }
    procBoundary1to0
    {
        type            processor;
        value           nonuniform List<vector> 
240
(
(0.0018298397 4.5957549e-09 -6.1585341e-10)
(0.0018297696 5.6222985e-09 -7.1850445e-11)
(0.0018297692 -4.7857998e-09 -4.9920568e-11)
(0.0018298304 -5.4293423e-09 -1.8116943e-11)
(0.0066433934 7.3019082e-09 -6.2579665e-10)
(0.0066433919 9.9748913e-09 -1.5503561e-10)
(0.0066433932 -7.2674472e-09 -8.0792367e-11)
(0.0066433666 -1.0077646e-08 -9.6323238e-11)
(0.0056043564 9.2618474e-09 -4.3396555e-10)
(0.0056043018 1.4381007e-08 -1.4384882e-10)
(0.0056043015 -8.9966631e-09 -7.2449127e-11)
(0.0056043447 -1.4496674e-08 -1.0478661e-10)
(0.0047524009 1.1245996e-08 -2.2146484e-10)
(0.0047524366 1.7934374e-08 -1.0376733e-10)
(0.0047524377 -1.1257283e-08 -3.7372073e-11)
(0.0047523887 -1.76737e-08 -7.4260015e-11)
(0.0045921467 5.8611872e-09 -7.9499593e-11)
(0.0045921783 1.2952001e-08 -6.0214762e-11)
(0.0045921784 -5.9052698e-09 -1.1164203e-11)
(0.0045921481 -1.2875129e-08 -3.7947007e-11)
(0.0050639655 4.6049698e-09 1.8971833e-11)
(0.0050639788 1.0971451e-08 -2.72236e-11)
(0.0050639784 -4.7833305e-09 1.5095211e-11)
(0.0050639684 -1.1056657e-08 -1.0815879e-11)
(0.0060082138 5.3941893e-09 6.2466736e-11)
(0.0060082115 1.1433057e-08 -7.5220409e-12)
(0.0060082107 -5.6662167e-09 3.056044e-11)
(0.0060082162 -1.1701063e-08 3.9853878e-12)
(0.0072786084 7.6051578e-09 7.3699393e-11)
(0.0072785951 1.3564822e-08 2.9915505e-12)
(0.0072785939 -8.0118277e-09 3.7240406e-11)
(0.0072786098 -1.4035862e-08 1.062924e-11)
(0.008777157 1.0637397e-08 7.1293281e-11)
(0.0087771379 1.6731982e-08 8.3111851e-12)
(0.0087771363 -1.1223252e-08 3.8592627e-11)
(0.0087771573 -1.742447e-08 1.3063868e-11)
(0.010450448 1.3910995e-08 6.3713632e-11)
(0.010450428 2.0357563e-08 1.0792096e-11)
(0.010450425 -1.4705807e-08 3.6789039e-11)
(0.010450448 -2.1279872e-08 1.3506789e-11)
(0.012275518 1.7032378e-08 5.4812989e-11)
(0.012275498 2.4025326e-08 1.1620507e-11)
(0.012275495 -1.8049787e-08 3.3203599e-11)
(0.012275516 -2.5173751e-08 1.2986314e-11)
(0.014247326 1.979887e-08 4.5846754e-11)
(0.014247309 2.7502917e-08 1.1407622e-11)
(0.014247306 -2.1031627e-08 2.8777442e-11)
(0.014247324 -2.8860732e-08 1.1934369e-11)
(0.016370674 2.2107919e-08 3.7489146e-11)
(0.016370661 3.0664667e-08 1.0552556e-11)
(0.016370657 -2.3531901e-08 2.4107075e-11)
(0.016370672 -3.2203009e-08 1.0550875e-11)
(0.018655902 2.3891348e-08 3.0025825e-11)
(0.018655894 3.342608e-08 9.3524119e-12)
(0.018655889 -2.5473537e-08 1.9648941e-11)
(0.018655899 -3.510885e-08 8.981975e-12)
(0.021116843 2.5097888e-08 2.3579213e-11)
(0.02111684 3.5718025e-08 8.0282943e-12)
(0.021116834 -2.6799483e-08 1.5651881e-11)
(0.021116841 -3.7506347e-08 7.4692378e-12)
(0.023769765 2.5698883e-08 1.8180047e-11)
(0.023769767 3.7490321e-08 6.7256515e-12)
(0.02376976 -2.7478805e-08 1.2221222e-11)
(0.023769763 -3.9344024e-08 6.1155209e-12)
(0.026632565 2.5699181e-08 1.3783132e-11)
(0.026632573 3.8724735e-08 5.5192303e-12)
(0.026632566 -2.7517148e-08 9.3765888e-12)
(0.026632564 -4.0604853e-08 4.9551319e-12)
(0.029724013 2.514122e-08 1.0290708e-11)
(0.029724026 3.9442937e-08 4.4728746e-12)
(0.029724017 -2.6959884e-08 7.0831302e-12)
(0.029724012 -4.1313428e-08 3.9891576e-12)
(0.033063024 2.4098825e-08 7.5758482e-12)
(0.033063042 3.9703149e-08 3.5693129e-12)
(0.033063033 -2.5885135e-08 5.275558e-12)
(0.033063025 -4.1531944e-08 3.19539e-12)
(0.036668093 2.2663913e-08 5.5051076e-12)
(0.036668116 3.9586953e-08 2.8220641e-12)
(0.036668105 -2.4389884e-08 3.8787573e-12)
(0.036668095 -4.1346679e-08 2.5383167e-12)
(0.040556902 2.0931462e-08 3.952541e-12)
(0.040556928 3.9182673e-08 2.2154761e-12)
(0.040556916 -2.2574499e-08 2.8180548e-12)
(0.040556905 -4.0851108e-08 2.0103389e-12)
(0.044746135 1.8987094e-08 2.8064616e-12)
(0.044746164 3.8570691e-08 1.731233e-12)
(0.044746151 -2.0529989e-08 2.025161e-12)
(0.044746139 -4.0131022e-08 1.5903189e-12)
(0.049251447 1.6899506e-08 1.9719921e-12)
(0.049251479 3.7813087e-08 1.3481532e-12)
(0.049251464 -1.8330196e-08 1.4407245e-12)
(0.049251453 -3.9253681e-08 1.2564097e-12)
(0.054087532 1.4717933e-08 1.372098e-12)
(0.054087567 3.6948378e-08 1.0463892e-12)
(0.054087551 -1.6029109e-08 1.0154434e-12)
(0.05408754 -3.8262439e-08 9.9079819e-13)
(0.059268236 1.2473647e-08 9.4594113e-13)
(0.059268274 3.5991226e-08 8.0945358e-13)
(0.059268256 -1.3662267e-08 7.0960754e-13)
(0.059268246 -3.7176325e-08 7.7937819e-13)
(0.064806668 1.0183968e-08 6.465687e-13)
(0.064806708 3.4935578e-08 6.239106e-13)
(0.06480669 -1.1250696e-08 4.9207207e-13)
(0.064806681 -3.5993089e-08 6.1110345e-13)
(0.070715286 7.8573071e-09 4.3850888e-13)
(0.070715329 3.3759673e-08 4.7899046e-13)
(0.070715309 -8.80592e-09 3.3894211e-13)
(0.070715301 -3.4694142e-08 4.7730502e-13)
(0.077005942 5.4981383e-09 2.9538889e-13)
(0.077005988 3.2431607e-08 3.6613966e-13)
(0.077005966 -6.334912e-09 2.3220774e-13)
(0.07700596 -3.3250106e-08 3.7113858e-13)
(0.083689878 3.1111984e-09 1.9791042e-13)
(0.083689928 3.0914578e-08 2.7857177e-13)
(0.083689905 -3.844303e-09 1.5850246e-13)
(0.0836899 -3.1626058e-08 2.8715212e-13)
(0.090777692 7.0459774e-10 1.3213159e-13)
(0.090777746 2.9171304e-08 2.108963e-13)
(0.090777721 -1.3435204e-09 1.0804148e-13)
(0.090777717 -2.9785984e-08 2.2097133e-13)
(0.098279259 -1.708213e-09 8.8108185e-14)
(0.098279316 2.7167449e-08 1.5883444e-13)
(0.09827929 1.1532066e-09 7.3772658e-14)
(0.098279288 -2.7696253e-08 1.6905725e-13)
(0.10620364 -4.1074927e-09 5.8844264e-14)
(0.1062037 2.4874088e-08 1.1899113e-13)
(0.10620367 3.6258424e-09 5.0666359e-14)
(0.10620367 -2.5328144e-08 1.2853753e-13)
(0.11455895 -6.4671092e-09 3.9485929e-14)
(0.11455901 2.2269363e-08 8.8671296e-14)
(0.11455898 6.0483832e-09 3.5181577e-14)
(0.11455899 -2.2659577e-08 9.7094055e-14)
(0.12335227 -8.7550858e-09 2.6693686e-14)
(0.12335234 1.9339536e-08 6.5738894e-14)
(0.12335231 8.3893364e-09 2.4839622e-14)
(0.12335232 -1.9676243e-08 7.2832565e-14)
(0.13258951 -1.0934603e-08 1.8215674e-14)
(0.13258958 1.607962e-08 4.8507492e-14)
(0.13258955 1.061265e-08 1.7930359e-14)
(0.13258956 -1.6372308e-08 5.4238201e-14)
(0.14227526 -1.2965328e-08 1.2550238e-14)
(0.14227534 1.2493764e-08 3.5647897e-14)
(0.1422753 1.2678971e-08 1.3294644e-14)
(0.14227531 -1.2750879e-08 4.0087588e-14)
(0.15241271 -1.4804967e-08 8.7065785e-15)
(0.15241279 8.595501e-09 2.611891e-14)
(0.15241276 1.4547135e-08 1.0150576e-14)
(0.15241277 -8.8243164e-09 2.9396642e-14)
(0.16300353 -1.6410983e-08 6.0504888e-15)
(0.16300361 4.4079508e-09 1.9106542e-14)
(0.16300358 1.6175811e-08 7.9736563e-15)
(0.16300359 -4.6145107e-09 2.1381403e-14)
(0.17404775 -1.7742419e-08 4.1766313e-15)
(0.17404784 -3.5976608e-11 1.3979075e-14)
(0.17404781 1.7525265e-08 6.4192447e-15)
(0.17404782 -1.5314297e-10 1.5423037e-14)
(0.18554372 -1.8761818e-08 2.8292786e-15)
(0.18554381 -4.6933408e-09 1.0248258e-14)
(0.18554378 1.8559224e-08 5.2685077e-15)
(0.1855438 4.5180206e-09 1.1034781e-14)
(0.19748798 -1.9437205e-08 1.8505173e-15)
(0.19748807 -9.510887e-09 7.5454357e-15)
(0.19748803 1.9246809e-08 4.3747275e-15)
(0.19748806 9.3467939e-09 7.8337794e-15)
(0.20987521 -1.9744112e-08 1.1417032e-15)
(0.20987531 -1.4424711e-08 5.5881233e-15)
(0.20987527 1.9564514e-08 3.6515329e-15)
(0.2098753 1.4270198e-08 5.5203001e-15)
(0.22269823 -1.9667605e-08 6.3698919e-16)
(0.22269832 -1.9359872e-08 4.1684353e-15)
(0.22269828 1.9498202e-08 3.0425075e-15)
(0.22269831 1.9214042e-08 3.869234e-15)
(0.23594788 -1.9204261e-08 2.9672401e-16)
(0.23594797 -2.4229945e-08 3.1321402e-15)
(0.23594793 1.9045054e-08 2.5141999e-15)
(0.23594797 2.4092459e-08 2.6998722e-15)
(0.24961307 -1.8364005e-08 8.7991692e-17)
(0.24961316 -2.8936532e-08 2.3686737e-15)
(0.24961312 1.8215395e-08 2.0510129e-15)
(0.24961316 2.8807403e-08 1.8763153e-15)
(0.26368075 -1.7171698e-08 -1.2787325e-17)
(0.26368084 -3.3368745e-08 1.7905339e-15)
(0.2636808 1.7034274e-08 1.6455419e-15)
(0.26368085 3.3248146e-08 1.3005454e-15)
(0.27813593 -1.5668287e-08 -2.6770304e-17)
(0.27813601 -3.7402719e-08 1.342367e-15)
(0.27813597 1.5542638e-08 1.2917276e-15)
(0.27813602 3.7290817e-08 8.9449446e-16)
(0.29296167 -1.3911309e-08 2.8033206e-17)
(0.29296175 -4.0901311e-08 9.9434623e-16)
(0.29296171 1.3797855e-08 9.875391e-16)
(0.29296176 4.0798144e-08 5.9940062e-16)