/*--------------------------------*- C++ -*----------------------------------*\
| =========                 |                                                 |
| \\      /  F ield         | OpenFOAM: The Open Source CFD Toolbox           |
|  \\    /   O peration     | Version:  3.0.1                                 |
|   \\  /    A nd           | Web:      www.OpenFOAM.org                      |
|    \\/     M anipulation  |                                                 |
\*---------------------------------------------------------------------------*/
FoamFile
{
    version     2.0;
    format      ascii;
    class       volScalarField;
    location    "350";
    object      p;
}
// * * * * * * * * * * * * * * * * * * * * * * * * * * * * * * * * * * * * * //

dimensions      [0 2 -2 0 0 0 0];

internalField   nonuniform List<scalar> 
480
(
7.231932e-08
7.0188936e-08
1.0780965e-07
9.744237e-08
6.6744519e-08
7.2372208e-08
1.1372643e-07
1.0104871e-07
6.317103e-08
7.2485282e-08
1.167356e-07
1.0654236e-07
6.2844838e-08
7.1340349e-08
1.1692683e-07
1.1199987e-07
6.6125068e-08
7.1927158e-08
1.1487999e-07
1.1500466e-07
7.0935028e-08
7.4096219e-08
1.1267649e-07
1.1614263e-07
7.5659007e-08
7.6888327e-08
1.114855e-07
1.1646392e-07
7.9561732e-08
7.958852e-08
1.1143347e-07
1.1657967e-07
8.245094e-08
8.1817241e-08
1.1216836e-07
1.1671453e-07
8.4434343e-08
8.3449055e-08
1.1323414e-07
1.1687919e-07
8.5660315e-08
8.4492791e-08
1.1427438e-07
1.1701526e-07
8.628745e-08
8.5017301e-08
1.1508479e-07
1.1707416e-07
8.6465679e-08
8.5112448e-08
1.1559305e-07
1.1704087e-07
8.6315479e-08
8.4868088e-08
1.1581618e-07
1.169364e-07
8.5931778e-08
8.4366017e-08
1.1582007e-07
1.1680564e-07
8.5390786e-08
8.3677481e-08
1.1568854e-07
1.1669741e-07
8.4755212e-08
8.2862837e-08
1.1550294e-07
1.1666049e-07
8.4077022e-08
8.1970805e-08
1.1533115e-07
1.1673621e-07
8.3398602e-08
8.1041507e-08
1.1522341e-07
1.169545e-07
8.2753e-08
8.0105239e-08
1.1521164e-07
1.1733217e-07
8.2164126e-08
7.9182851e-08
1.1531131e-07
1.1787382e-07
8.1647271e-08
7.8287239e-08
1.1552575e-07
1.1857294e-07
8.1210049e-08
7.7424466e-08
1.1584484e-07
1.1941396e-07
8.0853657e-08
7.6595217e-08
1.1625097e-07
1.2037473e-07
8.0575221e-08
7.5796287e-08
1.1672145e-07
1.2142864e-07
8.0367891e-08
7.5021991e-08
1.1723064e-07
1.2254663e-07
8.0222535e-08
7.4265486e-08
1.1775179e-07
1.2369873e-07
8.0129386e-08
7.3519923e-08
1.1825848e-07
1.2485539e-07
8.0079159e-08
7.2779368e-08
1.1872582e-07
1.259885e-07
8.0063409e-08
7.2039474e-08
1.1913124e-07
1.27072e-07
8.0075018e-08
7.1297926e-08
1.1945511e-07
1.2808237e-07
8.0108441e-08
7.0554817e-08
1.1968104e-07
1.2899883e-07
8.0159771e-08
6.9812459e-08
1.1979605e-07
1.2980341e-07
8.0226679e-08
6.9075447e-08
1.1979046e-07
1.3048093e-07
8.030822e-08
6.8350469e-08
1.1965799e-07
1.3101887e-07
8.0404628e-08
6.7646029e-08
1.1939541e-07
1.314072e-07
8.0517043e-08
6.6972106e-08
1.1900234e-07
1.3163823e-07
8.0647247e-08
6.6339785e-08
1.184809e-07
1.3170642e-07
8.0797409e-08
6.5760861e-08
1.1783549e-07
1.3160823e-07
8.0969848e-08
6.5247423e-08
1.1707244e-07
1.3134202e-07
8.116683e-08
6.4811425e-08
1.1619971e-07
1.3090799e-07
8.1390394e-08
6.4464231e-08
1.1522665e-07
1.3030816e-07
8.1642211e-08
6.4216127e-08
1.1416368e-07
1.2954652e-07
8.192347e-08
6.4075797e-08
1.1302211e-07
1.2862913e-07
8.2234793e-08
6.4049728e-08
1.1181386e-07
1.2756441e-07
8.2576158e-08
6.4141539e-08
1.1055138e-07
1.2636361e-07
8.2946845e-08
6.4351215e-08
1.0924743e-07
1.2504129e-07
8.3345368e-08
6.4674242e-08
1.0791513e-07
1.236161e-07
8.3769416e-08
6.5100621e-08
1.0656793e-07
1.2211168e-07
8.4215755e-08
6.5613799e-08
1.0521983e-07
1.2055775e-07
8.4680085e-08
6.6189548e-08
1.038857e-07
1.189914e-07
8.5156816e-08
6.6794849e-08
1.0258185e-07
1.1745842e-07
8.5638693e-08
6.7386642e-08
1.0132674e-07
1.1601486e-07
8.6116265e-08
6.7910141e-08
1.0014195e-07
1.1472912e-07
8.6577247e-08
6.8298315e-08
9.9053116e-08
1.1368255e-07
8.7005837e-08
6.8479112e-08
9.8090661e-08
1.1296218e-07
8.7381701e-08
6.8384877e-08
9.7290016e-08
1.1265088e-07
8.7675978e-08
6.7881329e-08
9.6693209e-08
1.128954e-07
8.7843575e-08
6.6550281e-08
9.6352178e-08
1.1412339e-07
8.7828628e-08
6.3988159e-08
9.6351242e-08
1.167328e-07
7.7239486e-08
6.240655e-08
1.0832384e-07
9.7526659e-08
7.6467043e-08
6.7166396e-08
1.102249e-07
9.6231316e-08
7.4859122e-08
7.0864582e-08
1.1140722e-07
9.7683678e-08
7.3395962e-08
7.1703809e-08
1.1227036e-07
1.0196876e-07
7.4520544e-08
7.3090502e-08
1.1168431e-07
1.0567126e-07
7.7025103e-08
7.5154616e-08
1.1101632e-07
1.0856685e-07
7.9790052e-08
7.7499522e-08
1.1094339e-07
1.1086436e-07
8.2181199e-08
7.974713e-08
1.1151476e-07
1.1274579e-07
8.3970926e-08
8.1650846e-08
1.124814e-07
1.1429419e-07
8.5152052e-08
8.3102206e-08
1.1352337e-07
1.1551413e-07
8.5811258e-08
8.4078998e-08
1.1440627e-07
1.1640354e-07
8.6067309e-08
8.4608696e-08
1.1501274e-07
1.1698177e-07
8.6023539e-08
8.4744794e-08
1.1532154e-07
1.1729509e-07
8.5748093e-08
8.4552566e-08
1.153714e-07
1.1740885e-07
8.5305171e-08
8.410006e-08
1.1523764e-07
1.1739717e-07
8.475056e-08
8.3452237e-08
1.1500365e-07
1.1734085e-07
8.4132389e-08
8.2667626e-08
1.1474611e-07
1.1731157e-07
8.3491637e-08
8.179708e-08
1.145269e-07
1.1736738e-07
8.2861824e-08
8.0881372e-08
1.1438998e-07
1.1755034e-07
8.2268736e-08
7.9951813e-08
1.1436187e-07
1.178866e-07
8.1730433e-08
7.9031248e-08
1.144538e-07
1.1838723e-07
8.1257675e-08
7.8134346e-08
1.1466171e-07
1.1905071e-07
8.0854756e-08
7.726885e-08
1.1497458e-07
1.1986541e-07
8.0520645e-08
7.6436899e-08
1.1537384e-07
1.2081201e-07
8.0249515e-08
7.5636462e-08
1.1583606e-07
1.2186586e-07
8.003377e-08
7.4862818e-08
1.1633512e-07
1.2299908e-07
7.9864582e-08
7.4109864e-08
1.1684406e-07
1.2418233e-07
7.9732601e-08
7.3371259e-08
1.1733646e-07
1.2538621e-07
7.9628683e-08
7.2641349e-08
1.1778756e-07
1.2658235e-07
7.9544829e-08
7.1915884e-08
1.1817506e-07
1.2774413e-07
7.9474571e-08
7.1192502e-08
1.1847963e-07
1.2884725e-07
7.9413157e-08
7.0470876e-08
1.1868523e-07
1.2986997e-07
7.9357587e-08
6.9753061e-08
1.1877923e-07
1.3079323e-07
7.9306538e-08
6.9043292e-08
1.1875248e-07
1.3160062e-07
7.9260156e-08
6.8347808e-08
1.1859898e-07
1.3227829e-07
7.9219856e-08
6.7674603e-08
1.1831579e-07
1.3281477e-07
7.918806e-08
6.7033113e-08
1.179028e-07
1.3320085e-07
7.9167929e-08
6.6433855e-08
1.1736241e-07
1.3342935e-07
7.9163115e-08
6.5888037e-08
1.1669925e-07
1.3349502e-07
7.9177531e-08
6.540715e-08
1.1591986e-07
1.333944e-07
7.9215143e-08
6.5002538e-08
1.1503244e-07
1.331258e-07
7.9279795e-08
6.4684947e-08
1.140465e-07
1.3268927e-07
7.9375058e-08
6.4464031e-08
1.1297266e-07
1.3208673e-07
7.9504112e-08
6.4347831e-08
1.118224e-07
1.3132213e-07
7.9669633e-08
6.4342169e-08
1.1060779e-07
1.3040175e-07
7.9873712e-08
6.4449982e-08
1.0934141e-07
1.2933465e-07
8.0117771e-08
6.4670554e-08
1.0803615e-07
1.2813324e-07
8.0402487e-08
6.499865e-08
1.0670522e-07
1.2681403e-07
8.0727699e-08
6.5423541e-08
1.0536217e-07
1.253986e-07
8.1092301e-08
6.5927947e-08
1.0402112e-07
1.2391472e-07
8.1494073e-08
6.6486931e-08
1.0269708e-07
1.2239765e-07
8.1929426e-08
6.7066807e-08
1.0140658e-07
1.2089154e-07
8.2392996e-08
6.7623884e-08
1.0016847e-07
1.1945095e-07
8.2877043e-08
6.8102737e-08
9.9004903e-08
1.1814286e-07
8.3370685e-08
6.8435588e-08
9.7942266e-08
1.1704724e-07
8.385898e-08
6.8549217e-08
9.7011543e-08
1.1624955e-07
8.4321727e-08
6.8372828e-08
9.6247879e-08
1.1583107e-07
8.4728533e-08
6.7766393e-08
9.5690035e-08
1.1593887e-07
8.5034863e-08
6.629547e-08
9.5381542e-08
1.1699423e-07
8.5187895e-08
6.3554177e-08
9.5359398e-08
1.1936438e-07
)
;

boundaryField
{
    movingWall
    {
        type            zeroGradient;
    }
    CPLReceiveMD
    {
        type            zeroGradient;
    }
    streamwiseIn
    {
        type            cyclic;
    }
    streamwiseOut
    {
        type            cyclic;
    }
    front
    {
        type            cyclic;
    }
    back
    {
        type            cyclic;
    }
    procBoundary1to0
    {
        type            processor;
        value           nonuniform List<scalar> 
240
(
7.3264523e-08
6.6401785e-08
1.0940964e-07
1.0452131e-07
7.2754782e-08
7.0926925e-08
1.1102015e-07
1.0309354e-07
7.1853681e-08
7.4168596e-08
1.1197966e-07
1.041167e-07
7.1148429e-08
7.4500841e-08
1.1266166e-07
1.0765952e-07
7.2845305e-08
7.5383908e-08
1.11918e-07
1.1049933e-07
7.5752329e-08
7.6993879e-08
1.1112062e-07
1.1251646e-07
7.8797128e-08
7.8962385e-08
1.1094945e-07
1.1401121e-07
8.139354e-08
8.090341e-08
1.1145292e-07
1.1521313e-07
8.3337165e-08
8.2559019e-08
1.123764e-07
1.1620418e-07
8.4623844e-08
8.381019e-08
1.1339538e-07
1.1697649e-07
8.5373434e-08
8.4626373e-08
1.142713e-07
1.1751252e-07
8.570735e-08
8.5027789e-08
1.1488208e-07
1.1781551e-07
8.5723542e-08
8.5061835e-08
1.1519831e-07
1.1791736e-07
8.5498991e-08
8.4789212e-08
1.152596e-07
1.1786831e-07
8.5099646e-08
8.4274064e-08
1.1513909e-07
1.1773358e-07
8.4582302e-08
8.3578037e-08
1.1491869e-07
1.1758458e-07
8.3995889e-08
8.2756856e-08
1.146742e-07
1.1748601e-07
8.3382021e-08
8.1858885e-08
1.1446696e-07
1.1749048e-07
8.277478e-08
8.0922995e-08
1.1434065e-07
1.1763575e-07
8.2200461e-08
7.9978843e-08
1.1432165e-07
1.1794466e-07
8.16776e-08
7.9047946e-08
1.1442144e-07
1.1842567e-07
8.1217405e-08
7.8143901e-08
1.1463629e-07
1.1907527e-07
8.0824564e-08
7.7273593e-08
1.1495483e-07
1.1988031e-07
8.0498297e-08
7.6438505e-08
1.153587e-07
1.2082031e-07
8.0233334e-08
7.5636118e-08
1.1582464e-07
1.2186976e-07
8.00224e-08
7.486134e-08
1.1632666e-07
1.2300013e-07
7.9856651e-08
7.4107798e-08
1.1683792e-07
1.241816e-07
7.9727262e-08
7.3368964e-08
1.1733211e-07
1.2538445e-07
7.9625274e-08
7.2639051e-08
1.1778458e-07
1.2658006e-07
7.9542828e-08
7.1913716e-08
1.1817309e-07
1.2774164e-07
7.9473572e-08
7.1190535e-08
1.1847841e-07
1.2884477e-07
7.9412846e-08
7.0469137e-08
1.1868454e-07
1.2986763e-07
7.935773e-08
6.9751557e-08
1.1877891e-07
1.3079109e-07
7.9306961e-08
6.9042011e-08
1.1875242e-07
1.3159872e-07
7.9260737e-08
6.834673e-08
1.1859908e-07
1.3227663e-07
7.9220507e-08
6.7673705e-08
1.1831599e-07
1.3281334e-07
7.9188722e-08
6.7032372e-08
1.1790305e-07
1.3319964e-07
7.9168565e-08
6.6433248e-08
1.1736268e-07
1.3342833e-07
7.9163703e-08
6.5887543e-08
1.1669952e-07
1.3349417e-07
7.9178059e-08
6.540675e-08
1.1592012e-07
1.333937e-07
7.9215607e-08
6.5002216e-08
1.1503267e-07
1.3312522e-07
7.9280195e-08
6.4684689e-08
1.140467e-07
1.326888e-07
7.9375399e-08
6.4463826e-08
1.1297284e-07
1.3208634e-07
7.9504398e-08
6.4347668e-08
1.1182255e-07
1.3132182e-07
7.966987e-08
6.434204e-08
1.1060792e-07
1.304015e-07
7.9873907e-08
6.444988e-08
1.0934151e-07
1.2933446e-07
8.011793e-08
6.4670475e-08
1.0803624e-07
1.2813309e-07
8.0402615e-08
6.4998588e-08
1.0670529e-07
1.2681391e-07
8.0727802e-08
6.5423493e-08
1.0536223e-07
1.253985e-07
8.1092383e-08
6.5927909e-08
1.0402117e-07
1.2391464e-07
8.1494138e-08
6.6486902e-08
1.0269712e-07
1.2239759e-07
8.1929478e-08
6.7066784e-08
1.0140661e-07
1.2089149e-07
8.2393037e-08
6.7623866e-08
1.0016849e-07
1.1945091e-07
8.2877075e-08
6.8102724e-08
9.9004922e-08
1.1814283e-07
8.337071e-08
6.8435578e-08
9.7942281e-08
1.1704722e-07
8.3859e-08
6.8549209e-08
9.7011554e-08
1.1624953e-07
8.4321743e-08
6.8372822e-08
9.6247889e-08
1.1583105e-07
8.4728548e-08
6.7766388e-08
9.5690043e-08
1.1593886e-07
8.5034876e-08
6.6295465e-08
9.5381548e-08
1.1699422e-07
8.5187906e-08
6.3554173e-08
9.5359404e-08
1.1936437e-07
)
;
    }
    procBoundary1to0throughback
    {
        type            processorCyclic;
        value           nonuniform List<scalar> 
240
(
4.636872e-08
5.261838e-08
5.1388148e-08
5.1773085e-08
5.6548077e-08
6.3057871e-08
6.9408387e-08
7.4733135e-08
7.879179e-08
8.1682506e-08
8.3610749e-08
8.4777062e-08
8.5353387e-08
8.5500745e-08
8.5338844e-08
8.4962273e-08
8.4447882e-08
8.3858444e-08
8.3244545e-08
8.2645449e-08
8.2089762e-08
8.1596333e-08
8.1175508e-08
8.0830789e-08
8.0560735e-08
8.0359169e-08
8.0217913e-08
8.0127444e-08
8.0078877e-08
8.0064094e-08
8.0076214e-08
8.0109857e-08
8.0161226e-08
8.0228069e-08
8.0309489e-08
8.0405751e-08
8.0518014e-08
8.0648072e-08
8.07981e-08
8.0970421e-08
8.11673e-08
8.1390776e-08
8.1642518e-08
8.1923716e-08
8.2234989e-08
8.2576314e-08
8.2946967e-08
8.3345464e-08
8.3769491e-08
8.4215813e-08
8.468013e-08
8.5156851e-08
8.5638719e-08
8.6116286e-08
8.6577264e-08
8.7005851e-08
8.7381711e-08
8.7675987e-08
8.7843583e-08
8.7828635e-08
7.2380873e-08
7.2927084e-08
7.1419474e-08
6.9352246e-08
6.961849e-08
7.1847276e-08
7.4885941e-08
7.7904102e-08
8.0455726e-08
8.2380782e-08
8.3674263e-08
8.4402251e-08
8.4657619e-08
8.4536389e-08
8.4127059e-08
8.3507158e-08
8.274244e-08
8.1886997e-08
8.0983828e-08
8.0065968e-08
7.9156339e-08
7.8269441e-08
7.7412554e-08
7.6587251e-08
7.5790947e-08
7.5018386e-08
7.4263021e-08
7.3518199e-08
7.2778121e-08
7.2038534e-08
7.1297192e-08
7.0554228e-08
6.9811969e-08
6.907503e-08
6.8350109e-08
6.7645715e-08
6.6971831e-08
6.6339545e-08
6.5760654e-08
6.5247245e-08
6.4811274e-08
6.4464103e-08
6.4216019e-08
6.4075708e-08
6.4049654e-08
6.4141478e-08
6.4351166e-08
6.4674203e-08
6.510059e-08
6.5613774e-08
6.6189528e-08
6.6794833e-08
6.738663e-08
6.7910131e-08
6.8298307e-08
6.8479106e-08
6.8384872e-08
6.7881325e-08
6.6550278e-08
6.3988156e-08
1.0201028e-07
1.068893e-07
1.0991441e-07
1.1073185e-07
1.095459e-07
1.0824403e-07
1.0789535e-07
1.0858475e-07
1.0993815e-07
1.1151273e-07
1.1296344e-07
1.1409577e-07
1.1485304e-07
1.1526847e-07
1.1541903e-07
1.1539818e-07
1.1529531e-07
1.1518481e-07
1.1512206e-07
1.1514294e-07
1.1526511e-07
1.1549487e-07
1.1582461e-07
1.1623811e-07
1.1671364e-07
1.1722624e-07
1.1774962e-07
1.1825774e-07
1.1872595e-07
1.1913187e-07
1.1945599e-07
1.1968202e-07
1.1979702e-07
1.1979136e-07
1.196588e-07
1.1939612e-07
1.1900294e-07
1.1848141e-07
1.1783591e-07
1.1707279e-07
1.162e-07
1.1522688e-07
1.1416387e-07
1.1302225e-07
1.1181398e-07
1.1055147e-07
1.092475e-07
1.0791518e-07
1.0656797e-07
1.0521986e-07
1.0388573e-07
1.0258187e-07
1.0132676e-07
1.0014196e-07
9.9053125e-08
9.8090667e-08
9.7290021e-08
9.6693213e-08
9.6352182e-08
9.6351245e-08
1.0383743e-07
1.0537204e-07
1.0867806e-07
1.1252089e-07
1.1458148e-07
1.152571e-07
1.1542267e-07
1.1556427e-07
1.1581749e-07
1.1613453e-07
1.1642392e-07
1.1662023e-07
1.1670188e-07
1.1669041e-07
1.1663108e-07
1.1657592e-07
1.1657748e-07
1.1668047e-07
1.1691767e-07
1.1730815e-07
1.1785825e-07
1.1856278e-07
1.1940722e-07
1.203701e-07
1.2142533e-07
1.2254413e-07
1.2369672e-07
1.248537e-07
1.25987e-07
1.2707065e-07
1.2808114e-07
1.289977e-07
1.2980238e-07
1.3048e-07
1.3101803e-07
1.3140646e-07
1.3163759e-07
1.3170587e-07
1.3160775e-07
1.3134161e-07
1.3090765e-07
1.3030788e-07
1.2954629e-07
1.2862893e-07
1.2756426e-07
1.2636348e-07
1.2504119e-07
1.2361602e-07
1.2211162e-07
1.205577e-07
1.1899136e-07
1.1745839e-07
1.1601484e-07
1.147291e-07
1.1368254e-07
1.1296217e-07
1.1265087e-07
1.1289539e-07
1.1412338e-07
1.1673279e-07
)
;
    }
}


// ************************************************************************* //
