/*--------------------------------*- C++ -*----------------------------------*\
| =========                 |                                                 |
| \\      /  F ield         | OpenFOAM: The Open Source CFD Toolbox           |
|  \\    /   O peration     | Version:  3.0.1                                 |
|   \\  /    A nd           | Web:      www.OpenFOAM.org                      |
|    \\/     M anipulation  |                                                 |
\*---------------------------------------------------------------------------*/
FoamFile
{
    version     2.0;
    format      ascii;
    class       surfaceScalarField;
    location    "350";
    object      phi;
}
// * * * * * * * * * * * * * * * * * * * * * * * * * * * * * * * * * * * * * //

dimensions      [0 3 -1 0 0 0 0];

internalField   nonuniform List<scalar> 
1072
(
0.33191903
-2.6917227e-08
3.1501306e-09
0.33191905
-4.2811579e-08
3.5902693e-09
0.33191902
1.9546069e-08
-1.6797726e-10
2.1320321e-08
1.0021156e-09
0.2692439
-2.265186e-07
2.7606203e-09
0.26924408
-2.2286065e-07
3.581539e-09
0.2692439
2.1553991e-07
1.395833e-09
1.9442155e-07
3.4382371e-09
0.19366453
-5.7100954e-07
9.8705798e-10
0.19366485
-5.523721e-07
2.1840437e-09
0.19366453
5.5398078e-07
2.046995e-09
5.2136458e-07
4.784538e-09
0.131905
-9.5610023e-07
-8.6637526e-10
0.13190538
-9.416926e-07
1.0971151e-09
0.13190501
9.3233241e-07
1.6439085e-09
9.0869809e-07
4.8237023e-09
0.091003378
-1.2634178e-06
-1.9497564e-09
0.091003703
-1.2682231e-06
5.7235362e-10
0.091003395
1.2346255e-06
9.5605933e-10
1.2329751e-06
4.1721543e-09
0.069571619
-1.4121585e-06
-2.1205011e-09
0.069571793
-1.4386489e-06
3.2703889e-10
0.069571636
1.3810005e-06
3.0242898e-10
1.4017185e-06
3.2248701e-09
0.063001354
-1.3928342e-06
-1.7770244e-09
0.063001354
-1.4325218e-06
2.17279e-10
0.063001362
1.3619137e-06
-1.3702698e-10
1.3950046e-06
2.2987193e-09
0.066667627
-1.2464533e-06
-1.3574988e-09
0.066667487
-1.2859282e-06
1.9166464e-10
0.066667624
1.2176576e-06
-3.5453632e-10
1.2490463e-06
1.5276826e-09
0.077163008
-1.0300241e-06
-9.6600683e-10
0.077162784
-1.0561688e-06
1.9018942e-10
0.077162994
1.0041308e-06
-4.0856658e-10
1.0209043e-06
9.3416732e-10
0.09239577
-7.9196259e-07
-6.6402876e-10
0.092395513
-7.9505798e-07
1.8441229e-10
0.092395748
7.6910649e-07
-3.6258721e-10
7.6198421e-07
4.9383549e-10
0.11127192
-5.6386299e-07
-4.8931131e-10
0.11127167
-5.3775674e-07
1.6930046e-10
0.1112719
5.4355137e-07
-2.6812981e-10
5.0699857e-07
1.9266535e-10
0.13332859
-3.6136844e-07
-3.0243206e-10
0.13332835
-3.0260879e-07
1.4990152e-10
0.13332856
3.4273657e-07
-1.5953577e-10
2.7393938e-07
-7.5161748e-12
0.15845026
-1.8900089e-07
-1.5468538e-10
0.15845006
-9.576934e-08
1.2490138e-10
0.15845023
1.7114486e-07
-5.573134e-11
6.8737968e-08
-1.3463005e-10
0.18668891
-4.5366479e-08
-4.6179301e-11
0.18668873
8.3486065e-08
1.0049906e-10
0.18668888
2.7503514e-08
3.437184e-11
-1.094204e-07
-1.9715976e-10
0.21816748
7.3108349e-08
2.895472e-11
0.21816733
2.3868185e-07
8.005179e-11
0.21816745
-9.1570081e-08
1.0769038e-10
-2.6401296e-07
-2.3999067e-10
0.25303761
1.7007095e-07
7.7626263e-11
0.25303747
3.7369994e-07
6.4784664e-11
0.25303757
-1.8952526e-07
1.6484375e-10
-3.9885264e-07
-2.5711483e-10
0.29146645
2.4839355e-07
1.0617766e-10
0.29146633
4.9168516e-07
5.4628979e-11
0.29146641
-2.6905798e-07
2.0785255e-10
-5.1698587e-07
-2.5745672e-10
0.33363585
3.1006947e-07
1.2006521e-10
0.33363574
5.9480263e-07
4.8368342e-11
0.33363581
-3.3201862e-07
2.3929446e-10
-6.2047168e-07
-2.4749252e-10
0.37974445
3.5643494e-07
1.2390928e-10
0.37974436
6.8440577e-07
4.5320708e-11
0.37974441
-3.7963532e-07
2.6194326e-10
-7.1056298e-07
-2.3190648e-10
0.43000885
3.8845379e-07
1.2152035e-10
0.43000877
7.6131391e-07
4.4852384e-11
0.4300088
-4.1279606e-07
2.7867231e-10
-7.8799445e-07
-2.1427716e-10
0.48466279
4.069423e-07
1.160161e-10
0.48466273
8.2605166e-07
4.6071552e-11
0.48466275
-4.3227584e-07
2.9669534e-10
-8.5322237e-07
-1.9705397e-10
0.54395477
4.1270325e-07
1.0986486e-10
0.54395472
8.7900109e-07
4.8240292e-11
0.54395472
-4.3883306e-07
3.0125608e-10
-9.0657879e-07
-1.8209894e-10
0.60814476
4.0658463e-07
1.049533e-10
0.60814472
9.2047139e-07
5.0706326e-11
0.60814471
-4.3330499e-07
3.0659487e-10
-9.4834126e-07
-1.7084538e-10
0.67750065
3.8949172e-07
1.0269541e-10
0.67750062
9.5071561e-07
5.2934195e-11
0.6775006
-4.165984e-07
3.1150995e-10
-9.7874697e-07
-1.6431608e-10
0.7522948
3.6237812e-07
1.0455364e-10
0.75229478
9.6992186e-07
5.4508168e-11
0.75229475
-3.8967856e-07
3.1640531e-10
-9.9798089e-07
-1.6317863e-10
0.83280084
3.2623617e-07
1.1105484e-10
0.83280083
9.7819969e-07
5.510122e-11
0.8328008
-3.5355588e-07
3.2155715e-10
-1.0061591e-06
-1.6783654e-10
0.91929076
2.8209192e-07
1.2242145e-10
0.91929076
9.7557363e-07
5.4470912e-11
0.91929072
-3.0927861e-07
3.2713187e-10
-1.0033196e-06
-1.7848311e-10
1.0120322
2.3100808e-07
1.3859286e-10
1.0120322
9.6198851e-07
5.2458724e-11
1.0120322
-2.5793347e-07
3.3320533e-10
-9.8942469e-07
-1.9513841e-10
1.1112859
1.7409232e-07
1.5966454e-10
1.111286
9.3732705e-07
4.8987341e-11
1.1112859
-2.0065296e-07
3.3978298e-10
-9.6437643e-07
-2.1767964e-10
1.2173034
1.1250932e-07
1.8560308e-10
1.2173034
9.0143761e-07
4.4044666e-11
1.2173033
-1.3862572e-07
3.4681905e-10
-9.280426e-07
-2.4587882e-10
1.3303242
4.7492059e-08
2.1627077e-10
1.3303242
8.5416942e-07
3.7667256e-11
1.3303242
-7.3106682e-08
3.5423433e-10
-8.8029031e-07
-2.7942936e-10
1.4505738
-1.9650581e-08
2.5145246e-10
1.4505738
7.9541216e-07
3.0025047e-11
1.4505738
-5.4237441e-09
3.619341e-10
-8.2102471e-07
-3.1796452e-10
1.5782609
-8.753254e-08
2.908712e-10
1.5782609
7.2513823e-07
2.1222138e-11
1.5782609
6.3022159e-08
3.6934285e-10
-7.5023027e-07
-3.610691e-10
1.7135749
-1.5469728e-07
3.3420241e-10
1.713575
6.4344488e-07
1.1401336e-11
1.7135749
1.3076207e-07
3.7732548e-10
-6.6801277e-07
-4.0828757e-10
1.8566837
-2.1963352e-07
3.8107752e-10
1.8566838
5.5059517e-07
7.3458685e-13
1.8566837
1.9627697e-07
3.8519967e-10
-5.746401e-07
-4.5912523e-10
2.0077307
-2.8080064e-07
4.310887e-10
2.0077308
4.4705641e-07
-1.0587226e-11
2.0077307
2.5802218e-07
3.9287179e-10
-4.7058078e-07
-5.1305244e-10
2.1668326
-3.3666376e-07
4.8378571e-10
2.1668328
3.3353491e-07
-2.2360856e-11
2.1668327
3.1446207e-07
4.0025102e-10
-3.5653921e-07
-5.6950595e-10
2.3340772
-3.8573792e-07
5.3867775e-10
2.3340774
2.1100655e-07
-3.437508e-11
2.3340773
3.6411391e-07
4.0725142e-10
-2.3348657e-07
-6.2788936e-10
2.5095208
-4.2664068e-07
5.952332e-10
2.5095209
8.0742226e-08
-4.6413447e-11
2.5095209
4.0559992e-07
4.1379322e-10
-1.0268685e-07
-6.8757331e-10
2.693186
-4.5815154e-07
6.5287875e-10
2.6931862
-5.5672139e-08
-5.8255641e-11
2.6931861
4.3770625e-07
4.1979996e-10
3.4282683e-08
-7.4789607e-10
2.8850604
-4.7927647e-07
7.1099971e-10
2.8850606
-1.9632151e-07
-6.967837e-11
2.8850605
4.5944694e-07
4.2519901e-10
1.7551677e-07
-8.0816431e-10
3.0850942
-4.8931488e-07
7.6894213e-10
3.0850943
-3.3895381e-07
-8.0454875e-11
3.0850943
4.7013041e-07
4.2992237e-10
3.1877381e-07
-8.6765589e-10
3.2931991
-4.8792577e-07
8.2601579e-10
3.2931992
-4.8097837e-07
-9.0354333e-11
3.2931992
4.6942515e-07
4.3390647e-10
4.6147376e-07
-9.2562216e-10
3.5092472
-4.7518884e-07
8.8149876e-10
3.5092474
-6.1947126e-07
-9.9140932e-11
3.5092474
4.5742031e-07
4.370921e-10
6.00703e-07
-9.8129327e-10
3.7330701
-4.5165517e-07
9.3464294e-10
3.7330703
-7.511882e-07
-1.0657261e-10
3.7330703
4.3467594e-07
4.3942495e-10
7.3322679e-07
-1.0338842e-09
3.9644584
-4.1838081e-07
9.8468042e-10
3.9644586
-8.7258665e-07
-1.1240051e-10
3.9644586
4.0225594e-07
4.4085653e-10
8.5551071e-07
-1.0826025e-09
4.2031617
-3.7693526e-07
1.0308307e-09
4.2031619
-9.7985969e-07
-1.1636845e-10
4.2031619
3.6173585e-07
4.4134408e-10
9.6375398e-07
-1.1266578e-09
4.4488888
-3.2937546e-07
1.0723078e-09
4.4488889
-1.0689866e-06
-1.1821385e-10
4.4488889
3.1517593e-07
4.4085017e-10
1.0539391e-06
-1.165273e-09
4.7013082
-2.7817521e-07
1.1083276e-09
4.7013083
-1.1358072e-06
-1.1767029e-10
4.7013083
2.6504944e-07
4.393399e-10
1.1219053e-06
-1.1976976e-09
4.9600495
-2.2610026e-07
1.1381156e-09
4.9600496
-1.176132e-06
-1.1447272e-10
4.9600496
2.1411634e-07
4.3677537e-10
1.1634572e-06
-1.2232196e-09
5.2247046
-1.7602157e-07
1.1609144e-09
5.2247046
-1.1859054e-06
-1.0836336e-10
5.2247046
1.6523503e-07
4.3310405e-10
1.1745268e-06
-1.2411782e-09
5.4948293
-1.3066428e-07
1.1759941e-09
5.4948292
-1.1614479e-06
-9.9098308e-11
5.4948293
1.2111001e-07
4.2824154e-10
1.1514146e-06
-1.2509703e-09
5.7699458
-9.2299496e-08
1.1826665e-09
5.7699458
-1.0998189e-06
-8.6447716e-11
5.7699458
8.3983061e-08
4.2204984e-10
1.0911521e-06
-1.2520491e-09
6.0495453
-6.2400606e-08
1.1803091e-09
6.0495452
-9.9936388e-07
-7.0179136e-11
6.0495452
5.5290529e-08
4.1431638e-10
9.9205013e-07
-1.2439076e-09
6.3330902
-4.1308734e-08
1.1684094e-09
6.3330901
-8.605499e-07
-5.0020121e-11
6.3330901
3.5332798e-08
4.0477057e-10
8.5453875e-07
-1.2260336e-09
6.6200181
-2.7986468e-08
1.146655e-09
6.6200179
-6.8726053e-07
-2.5544554e-11
6.6200179
2.3036614e-08
3.9320894e-10
6.8247167e-07
-1.1978567e-09
6.9097444
-1.9993289e-08
1.114997e-09
6.9097442
-4.8877767e-07
4.390871e-12
6.9097442
1.5946612e-08
3.7973398e-10
4.8512361e-07
-1.158803e-09
7.2016666
-1.3891532e-08
1.0739938e-09
7.2016664
-2.8264111e-07
4.1881592e-11
7.2016664
1.0662421e-08
3.6553733e-10
2.8007947e-07
-1.1089881e-09
7.4951676
-6.6109946e-09
1.0234426e-09
7.4951674
-9.954425e-08
9.2850164e-11
7.4951674
4.2882632e-09
3.536816e-10
9.8129905e-08
-1.0460833e-09
7.7896201
8.5888047e-10
7.78962
1.4115107e-10
7.78962
3.2259001e-10
-8.5590592e-10
0.33191902
-3.9706344e-08
0.33191904
-5.5241626e-08
0.33191901
2.9296785e-08
3.7666432e-08
0.26924388
-2.2763096e-07
0.26924406
-2.3442506e-07
0.26924387
2.2039764e-07
2.0772813e-07
0.19366453
-5.565464e-07
0.19366486
-5.5494643e-07
0.19366453
5.516955e-07
5.2618626e-07
0.13190502
-9.3413417e-07
0.13190541
-9.372918e-07
0.13190503
9.2679056e-07
9.0754177e-07
0.091003431
-1.2394383e-06
0.091003756
-1.2581624e-06
0.091003451
1.2274495e-06
1.2277843e-06
0.069571689
-1.3893732e-06
0.069571858
-1.4253453e-06
0.069571706
1.3732201e-06
1.3943585e-06
0.063001421
-1.3730525e-06
0.063001416
-1.4185313e-06
0.063001429
1.3542345e-06
1.3871162e-06
0.066667681
-1.2305881e-06
0.066667536
-1.2732595e-06
0.066667677
1.2105232e-06
1.2418019e-06
0.077163043
-1.0180852e-06
0.077162816
-1.0460026e-06
0.077163028
9.9778449e-07
1.0148573e-06
0.09239579
-7.8365605e-07
0.092395531
-7.8778359e-07
0.092395766
7.63545e-07
7.5712564e-07
0.11127193
-5.5864993e-07
0.11127168
-5.331935e-07
0.1112719
5.3863418e-07
5.0301216e-07
0.13332859
-3.5851678e-07
0.13332835
-3.0026467e-07
0.13332856
3.3829945e-07
2.7041775e-07
0.15845026
-1.8774593e-07
0.15845005
-9.5065242e-08
0.15845023
1.6708343e-07
6.5355606e-08
0.18668891
-4.5154241e-08
0.18668873
8.3084158e-08
0.18668887
2.3740808e-08
-1.1285312e-07
0.21816748
7.2656811e-08
0.21816732
2.3760477e-07
0.21816744
-9.5073054e-08
-2.6763409e-07
0.2530376
1.6919619e-07
0.25303746
3.7226427e-07
0.25303756
-1.9278193e-07
-4.0269271e-07
0.29146644
2.472405e-07
0.29146632
4.9010687e-07
0.2914664
-2.7206955e-07
-5.2100616e-07
0.33363584
3.0872348e-07
0.33363573
5.9322112e-07
0.33363579
-3.3478411e-07
-6.2459899e-07
0.37974444
3.5494779e-07
0.37974435
6.8290416e-07
0.37974439
-3.8215694e-07
-7.1471427e-07
0.43000884
3.8686021e-07
0.43000876
7.5993761e-07
0.43000879
-4.1508082e-07
-7.9208979e-07
0.48466278
4.0526905e-07
0.48466271
8.2482234e-07
0.48466273
-4.3431226e-07
-8.5719639e-07
0.54395476
4.1097341e-07
0.54395471
8.7792484e-07
0.54395471
-4.4064513e-07
-9.1038312e-07
0.60814475
4.0481891e-07
0.6081447
9.1954509e-07
0.6081447
-4.3491536e-07
-9.5194247e-07
0.67750064
3.8770857e-07
0.6775006
9.4993063e-07
0.67750059
-4.1802916e-07
-9.8212348e-07
0.75229479
3.6059539e-07
0.75229477
9.692663e-07
0.75229474
-3.909511e-07
-1.0011198e-06
0.83280083
3.2447017e-07
0.83280082
9.7765952e-07
0.83280078
-3.5469104e-07
-1.0090536e-06
0.91929075
2.8035671e-07
0.91929075
9.7513331e-07
0.9192907
-3.1029676e-07
-1.0059663e-06
1.0120322
2.293147e-07
1.0120322
9.6163134e-07
1.0120321
-2.5885473e-07
-9.9182252e-07
1.1112859
1.7244945e-07
1.1112859
9.3703537e-07
1.1112859
-2.0149721e-07
-9.6652551e-07
1.2173034
1.1092389e-07
1.2173034
9.0119301e-07
1.2173033
-1.3941265e-07
-9.2994345e-07
1.3303242
4.5969909e-08
1.3303242
8.5395279e-07
1.3303242
-7.3855657e-08
-8.8194356e-07
1.4505738
-2.1104177e-08
1.4505738
7.9520418e-07
1.4505738
-6.1537017e-09
-8.2243104e-07
1.5782609
-8.891236e-08
1.5782609
7.249194e-07
1.5782609
6.2291661e-08
-7.513905e-07
1.7135749
-1.5599778e-07
1.713575
6.4319569e-07
1.7135749
1.3001372e-07
-6.6892794e-07
1.8566837
-2.208486e-07
1.8566838
5.5029634e-07
1.8566837
1.9549426e-07
-5.7531171e-07
2.0077307
-2.8192353e-07
2.0077308
4.4668906e-07
2.0077307
2.5718971e-07
-4.7101105e-07
2.1668326
-3.3768694e-07
2.1668328
3.3308093e-07
2.1668327
3.1356585e-07
-3.5673129e-07
2.3340772
-3.8665329e-07
2.3340774
2.1044886e-07
2.3340773
3.6314166e-07
-2.3344477e-07
2.5095208
-4.2743972e-07
2.5095209
8.0065215e-08
2.5095209
4.0454135e-07
-1.0241679e-07
2.693186
-4.5882565e-07
2.6931862
-5.648226e-08
2.6931861
4.3655341e-07
3.4773847e-08
2.8850604
-4.7981741e-07
2.8850606
-1.9727624e-07
2.8850605
4.5819456e-07
1.7622023e-07
3.0850942
-4.8971525e-07
3.0850943
-3.4006189e-07
3.0850943
4.6877629e-07
3.1967895e-07
3.2931991
-4.8817968e-07
3.2931992
-4.8224529e-07
3.2931992
4.679706e-07
4.6256807e-07
3.5092472
-4.752926e-07
3.5092474
-6.2089872e-07
3.5092474
4.5587065e-07
6.0197199e-07
3.7330701
-4.5160815e-07
3.7330703
-7.527736e-07
3.7330703
4.3304099e-07
7.3465384e-07
3.9644585
-4.181864e-07
3.9644586
-8.7432249e-07
3.9644586
4.0055064e-07
8.5707704e-07
4.2031618
-3.7660191e-07
4.2031619
-9.8173313e-07
4.2031619
3.5998079e-07
9.6543849e-07
4.4488888
-3.2891781e-07
4.4488889
-1.0709789e-06
4.4488889
3.1339787e-07
1.0557182e-06
4.7013082
-2.7761524e-07
4.7013083
-1.1378935e-06
4.7013084
2.6328166e-07
1.1237529e-06
4.9600495
-2.2546825e-07
4.9600496
-1.1782808e-06
4.9600496
2.1239869e-07
1.1653444e-06
5.2247046
-1.7535677e-07
5.2247046
-1.1880785e-06
5.2247046
1.6361348e-07
1.1764219e-06
5.4948293
-1.3001493e-07
5.4948292
-1.1636e-06
5.4948293
1.1963553e-07
1.1532835e-06
5.7699458
-9.172171e-08
5.7699458
-1.1018981e-06
5.7699458
8.2709536e-08
1.09296e-06
6.0495453
-6.195565e-08
6.0495452
-1.001312e-06
6.0495452
5.4271903e-08
9.9376421e-07
6.3330902
-4.1057986e-08
6.3330901
-8.6230423e-07
6.3330901
3.4620064e-08
8.5613552e-07
6.6200181
-2.7983276e-08
6.6200179
-6.8875946e-07
6.620018
2.2676966e-08
6.8395011e-07
6.9097445
-2.027171e-08
6.9097443
-4.8997109e-07
6.9097443
1.5988312e-08
4.8652881e-07
7.2016666
-1.4445519e-08
7.2016664
-2.8352246e-07
7.2016664
1.1168818e-08
2.8154577e-07
7.4951676
-7.3819467e-09
7.4951674
-1.000841e-07
7.4951675
5.2982552e-09
9.9882685e-08
7.7896201
7.78962
7.78962
)
;

boundaryField
{
    movingWall
    {
        type            calculated;
        value           uniform 0;
    }
    CPLReceiveMD
    {
        type            calculated;
        value           uniform 0;
    }
    streamwiseIn
    {
        type            cyclic;
        value           nonuniform List<scalar> 
120
(
-0.331919
-0.26924372
-0.19366421
-0.13190463
-0.091003075
-0.069571466
-0.063001365
-0.066667766
-0.077163218
-0.092396005
-0.11127215
-0.13332879
-0.15845044
-0.18668906
-0.2181676
-0.2530377
-0.29146653
-0.33363591
-0.3797445
-0.43000888
-0.48466281
-0.54395478
-0.60814475
-0.67750063
-0.75229477
-0.83280081
-0.91929072
-1.0120321
-1.1112859
-1.2173033
-1.3303241
-1.4505737
-1.5782608
-1.7135749
-1.8566836
-2.0077306
-2.1668326
-2.3340772
-2.5095207
-2.693186
-2.8850604
-3.0850942
-3.2931991
-3.5092472
-3.7330701
-3.9644585
-4.2031618
-4.4488888
-4.7013083
-4.9600496
-5.2247046
-5.4948293
-5.7699459
-6.0495453
-6.3330902
-6.6200181
-6.9097444
-7.2016666
-7.4951676
-7.7896201
-0.33191898
-0.26924369
-0.19366421
-0.13190465
-0.091003127
-0.069571537
-0.063001435
-0.066667822
-0.077163255
-0.092396025
-0.11127216
-0.13332879
-0.15845043
-0.18668905
-0.21816759
-0.25303769
-0.29146652
-0.3336359
-0.37974448
-0.43000887
-0.4846628
-0.54395476
-0.60814474
-0.67750062
-0.75229476
-0.83280079
-0.9192907
-1.0120321
-1.1112859
-1.2173033
-1.3303241
-1.4505737
-1.5782608
-1.7135749
-1.8566836
-2.0077306
-2.1668326
-2.3340772
-2.5095207
-2.693186
-2.8850604
-3.0850942
-3.2931991
-3.5092472
-3.7330702
-3.9644585
-4.2031618
-4.4488889
-4.7013083
-4.9600496
-5.2247046
-5.4948293
-5.7699459
-6.0495453
-6.3330903
-6.6200181
-6.9097445
-7.2016666
-7.4951676
-7.7896201
)
;
    }
    streamwiseOut
    {
        type            cyclic;
        value           nonuniform List<scalar> 
120
(
0.331919
0.26924372
0.19366421
0.13190463
0.091003075
0.069571466
0.063001365
0.066667766
0.077163218
0.092396005
0.11127215
0.13332879
0.15845044
0.18668906
0.2181676
0.2530377
0.29146653
0.33363591
0.3797445
0.43000888
0.48466281
0.54395478
0.60814475
0.67750063
0.75229477
0.83280081
0.91929072
1.0120321
1.1112859
1.2173033
1.3303241
1.4505737
1.5782608
1.7135749
1.8566836
2.0077306
2.1668326
2.3340772
2.5095207
2.693186
2.8850604
3.0850942
3.2931991
3.5092472
3.7330701
3.9644585
4.2031618
4.4488888
4.7013083
4.9600496
5.2247046
5.4948293
5.7699459
6.0495453
6.3330902
6.6200181
6.9097444
7.2016666
7.4951676
7.7896201
0.33191898
0.26924369
0.19366421
0.13190465
0.091003127
0.069571537
0.063001435
0.066667822
0.077163255
0.092396025
0.11127216
0.13332879
0.15845043
0.18668905
0.21816759
0.25303769
0.29146652
0.3336359
0.37974448
0.43000887
0.4846628
0.54395476
0.60814474
0.67750062
0.75229476
0.83280079
0.9192907
1.0120321
1.1112859
1.2173033
1.3303241
1.4505737
1.5782608
1.7135749
1.8566836
2.0077306
2.1668326
2.3340772
2.5095207
2.693186
2.8850604
3.0850942
3.2931991
3.5092472
3.7330702
3.9644585
4.2031618
4.4488889
4.7013083
4.9600496
5.2247046
5.4948293
5.7699459
6.0495453
6.3330903
6.6200181
6.9097445
7.2016666
7.4951676
7.7896201
)
;
    }
    front
    {
        type            cyclic;
        value           nonuniform 0();
    }
    back
    {
        type            cyclic;
        value           nonuniform 0();
    }
    procBoundary1to0
    {
        type            processor;
        value           nonuniform List<scalar> 
240
(
4.7297517e-09
2.8274138e-09
-4.3437664e-10
2.5182748e-10
2.9728904e-09
2.8579142e-09
1.1854486e-09
1.9487593e-09
1.5525852e-09
1.594631e-09
1.8809686e-09
3.4531149e-09
-4.1184848e-10
8.1873523e-10
1.5266669e-09
3.6702811e-09
-1.6492549e-09
4.5910258e-10
8.7945471e-10
3.2142789e-09
-1.799875e-09
2.3898728e-10
2.5698103e-10
2.4567857e-09
-1.5343552e-09
1.7358631e-10
-1.5962124e-10
1.6967825e-09
-1.1713296e-09
1.7602227e-10
-3.6146927e-10
1.0617145e-09
-7.3931547e-10
1.8858822e-10
-4.053518e-10
5.8093549e-10
-6.0590913e-10
1.8825582e-10
-3.536508e-10
2.4065417e-10
-4.2687163e-10
1.7194383e-10
-2.5687649e-10
1.0588325e-11
-2.5467703e-10
1.452739e-10
-1.4813759e-10
-1.3870949e-10
-1.1783142e-10
1.1572764e-10
-4.4393168e-11
-2.1232813e-10
-1.6917335e-11
8.873948e-11
4.5980719e-11
-2.496941e-10
5.3068216e-11
6.7138185e-11
1.192113e-10
-2.7958128e-10
9.8139067e-11
5.1742169e-11
1.7604899e-10
-2.8895424e-10
1.2400774e-10
4.216028e-11
2.1861056e-10
-2.8350653e-10
1.3574704e-10
3.8716233e-11
2.4949325e-10
-2.688771e-10
1.3773127e-10
3.8649538e-11
2.7152154e-10
-2.4922485e-10
1.3365954e-10
4.0349086e-11
2.8753461e-10
-2.2655401e-10
1.2660443e-10
4.3111087e-11
3.0271771e-10
-2.0567295e-10
1.1901579e-10
4.6352676e-11
3.0932479e-10
-1.8808704e-10
1.1277925e-10
4.9551614e-11
3.1319306e-10
-1.74953e-10
1.0932067e-10
5.2269912e-11
3.1685205e-10
-1.6708905e-10
1.1010099e-10
5.416355e-11
3.2068088e-10
-1.6501231e-10
1.1564764e-10
5.4958903e-11
3.249391e-10
-1.6901422e-10
1.2618539e-10
5.4452745e-11
3.2977458e-10
-1.7920544e-10
1.4164103e-10
5.2512549e-11
3.352452e-10
-1.9554878e-10
1.6210855e-10
4.9079351e-11
3.4133738e-10
-2.1787977e-10
1.8754273e-10
4.4153451e-11
3.479877e-10
-2.459402e-10
2.1779468e-10
3.7780103e-11
3.5510065e-10
-2.7940198e-10
2.5263767e-10
3.0134623e-11
3.6256658e-10
-3.1788302e-10
2.9178401e-10
2.1324241e-11
3.7003229e-10
-3.6095735e-10
3.3489844e-10
1.1494091e-11
3.7785902e-10
-4.0816176e-10
3.816027e-10
8.1743242e-13
3.8560588e-10
-4.5899609e-10
4.3145875e-10
-1.0514111e-11
3.9317733e-10
-5.1292685e-10
4.8403445e-10
-2.2296906e-11
4.004781e-10
-5.6938814e-10
5.3884013e-10
-3.4319563e-11
4.0741817e-10
-6.2778174e-10
5.9533488e-10
-4.6365508e-11
4.1391405e-10
-6.8747694e-10
6.5293851e-10
-5.8214515e-11
4.1988125e-10
-7.4781109e-10
7.1103118e-10
-6.9643292e-11
4.2525229e-10
-8.080905e-10
7.6895493e-10
-8.0425083e-11
4.2995609e-10
-8.6759249e-10
8.2601687e-10
-9.0329171e-11
4.3392668e-10
-9.2556827e-10
8.8149293e-10
-9.9119773e-11
4.3710312e-10
-9.8124788e-10
9.3463349e-10
-1.0655494e-10
4.3942986e-10
-1.0338463e-09
9.8466962e-10
-1.1238589e-10
4.4085747e-10
-1.082571e-09
1.0308198e-09
-1.1635645e-10
4.4134261e-10
-1.1266318e-09
1.0722975e-09
-1.1820396e-10
4.4084736e-10
-1.1652519e-09
1.1083183e-09
-1.1766221e-10
4.3933664e-10
-1.1976804e-09
1.1381074e-09
-1.1446616e-10
4.3677208e-10
-1.2232058e-09
1.1609073e-09
-1.08358e-10
4.3310089e-10
-1.2411672e-09
1.175988e-09
-9.9093965e-11
4.2823892e-10
-1.2509615e-09
1.1826615e-09
-8.6444337e-11
4.2204774e-10
-1.2520423e-09
1.1803051e-09
-7.0176632e-11
4.1431455e-10
-1.2439022e-09
1.168406e-09
-5.0018341e-11
4.0476904e-10
-1.2260293e-09
1.1466523e-09
-2.5543299e-11
3.9320742e-10
-1.1978533e-09
1.1149947e-09
4.3916192e-12
3.7973249e-10
-1.1588002e-09
1.0739916e-09
4.1882188e-11
3.65536e-10
-1.1089858e-09
1.0234406e-09
9.2850692e-11
3.5368029e-10
-1.0460815e-09
8.5887859e-10
1.4115143e-10
3.2258887e-10
-8.559046e-10
)
;
    }
    procBoundary1to0throughback
    {
        type            processorCyclic;
        value           nonuniform List<scalar> 
240
(
1.7513783e-08
1.5722523e-08
1.2178105e-08
9.8458137e-09
7.2435089e-09
4.7596601e-09
3.0061708e-09
1.8431759e-09
1.0951509e-09
6.200937e-10
3.4623099e-10
2.0220073e-10
4.1149069e-12
-9.9226093e-11
-1.6035499e-10
-1.9212943e-10
-2.0363262e-10
-2.0153908e-10
-1.9101828e-10
-1.7612256e-10
-1.599769e-10
-1.4493513e-10
-1.3271167e-10
-1.2454293e-10
-1.2168898e-10
-1.244449e-10
-1.3285533e-10
-1.4670108e-10
-1.659545e-10
-1.9047601e-10
-2.2004185e-10
-2.5436946e-10
-2.9312693e-10
-3.3594687e-10
-3.8242688e-10
-4.3210955e-10
-4.8455218e-10
-5.3925406e-10
-5.9566734e-10
-6.532064e-10
-7.1124758e-10
-7.6913018e-10
-8.2615887e-10
-8.8160793e-10
-9.3472652e-10
-9.8474464e-10
-1.0308802e-09
-1.0723461e-09
-1.1083574e-09
-1.1381388e-09
-1.1609325e-09
-1.1760085e-09
-1.182678e-09
-1.1803183e-09
-1.1684169e-09
-1.1466611e-09
-1.1150018e-09
-1.0739976e-09
-1.0234453e-09
-8.5888176e-10
-7.1756722e-10
1.3915859e-09
2.9328008e-09
3.1878573e-09
2.6819599e-09
2.1338425e-09
1.5953965e-09
1.1136073e-09
7.3886163e-10
4.7061177e-10
2.8850408e-10
1.6919297e-10
9.2354361e-11
4.2924604e-11
1.0818577e-11
-1.044445e-11
-2.4923428e-11
-3.6544839e-11
-4.5193602e-11
-5.1378201e-11
-5.5899905e-11
-5.9244151e-11
-6.1610669e-11
-6.3035558e-11
-6.3470656e-11
-6.2816683e-11
-6.0966203e-11
-5.7831983e-11
-5.3369614e-11
-4.757623e-11
-4.0485042e-11
-3.2253901e-11
-2.2970996e-11
-1.2763692e-11
-1.7889372e-12
9.7762294e-12
2.1740556e-11
3.3903165e-11
4.6056241e-11
5.7986641e-11
6.9476791e-11
8.0304611e-11
9.0242841e-11
9.9058529e-11
1.06512e-10
1.1235607e-10
1.1633595e-10
1.1819007e-10
1.1765303e-10
1.1446018e-10
1.0835432e-10
9.9092042e-11
8.6443274e-11
7.0176161e-11
5.0018338e-11
2.5543782e-11
-4.3908296e-12
-4.1880862e-11
-9.2848843e-11
-1.4114987e-10
2.1061585e-09
1.4174994e-09
7.247997e-10
6.2967068e-10
7.3022235e-10
8.7402322e-10
9.2570811e-10
9.0066082e-10
7.3017187e-10
5.4663144e-10
3.7501156e-10
2.1615864e-10
5.2912247e-11
-6.0531577e-11
-1.4663022e-10
-2.0912125e-10
-2.5255821e-10
-2.8133098e-10
-2.9939787e-10
-3.0916423e-10
-3.2301575e-10
-3.2681171e-10
-3.2801523e-10
-3.2883355e-10
-3.3014225e-10
-3.3231142e-10
-3.3547542e-10
-3.3963364e-10
-3.4470962e-10
-3.5057923e-10
-3.5709397e-10
-3.6407087e-10
-3.7122734e-10
-3.7878856e-10
-3.8633111e-10
-3.9374555e-10
-4.0092521e-10
-4.0777133e-10
-4.1419263e-10
-4.2010218e-10
-4.2542776e-10
-4.3009555e-10
-4.3403752e-10
-4.3719123e-10
-4.3949988e-10
-4.4091306e-10
-4.4138667e-10
-4.408821e-10
-4.3936389e-10
-4.3679335e-10
-4.3311749e-10
-4.2825172e-10
-4.2205748e-10
-4.1432217e-10
-4.0477481e-10
-3.9321204e-10
-3.7973631e-10
-3.6553889e-10
-3.5368243e-10
-3.2259041e-10
6.964013e-10
5.6559333e-10
-2.1272423e-10
-7.0391919e-10
-8.5187775e-10
-6.8621633e-10
-4.1091471e-10
-1.4471466e-10
6.5014875e-11
2.0753236e-10
2.9209081e-10
3.3253941e-10
3.3441277e-10
3.1889535e-10
3.1436565e-10
2.9876056e-10
2.7729049e-10
2.534409e-10
2.293408e-10
2.0539563e-10
1.8519775e-10
1.693758e-10
1.5850169e-10
1.5302361e-10
1.5324184e-10
1.5933225e-10
1.7135638e-10
1.892653e-10
2.1290511e-10
2.4204176e-10
2.7637657e-10
3.1555711e-10
3.5918572e-10
4.0682471e-10
4.5799657e-10
5.1218699e-10
5.688461e-10
6.2738903e-10
6.8719591e-10
7.4761276e-10
8.0795262e-10
8.674984e-10
9.255055e-10
9.8120725e-10
1.033821e-09
1.0825562e-09
1.126624e-09
1.1652485e-09
1.1976797e-09
1.2232066e-09
1.2411686e-09
1.250963e-09
1.2520436e-09
1.2439035e-09
1.2260306e-09
1.1978545e-09
1.1588015e-09
1.1089871e-09
1.046083e-09
8.5590616e-10
)
;
    }
}


// ************************************************************************* //
