/*--------------------------------*- C++ -*----------------------------------*\
| =========                 |                                                 |
| \\      /  F ield         | OpenFOAM: The Open Source CFD Toolbox           |
|  \\    /   O peration     | Version:  3.0.1                                 |
|   \\  /    A nd           | Web:      www.OpenFOAM.org                      |
|    \\/     M anipulation  |                                                 |
\*---------------------------------------------------------------------------*/
FoamFile
{
    version     2.0;
    format      ascii;
    class       surfaceScalarField;
    location    "425";
    object      phi;
}
// * * * * * * * * * * * * * * * * * * * * * * * * * * * * * * * * * * * * * //

dimensions      [0 3 -1 0 0 0 0];

internalField   nonuniform List<scalar> 
1072
(
0.33521908
7.8584484e-08
7.3244413e-09
0.33521899
3.8609992e-08
5.4847674e-09
0.33521906
-9.9863949e-08
1.1850579e-09
-1.0284498e-07
-2.5262207e-09
0.38297018
-5.4832705e-08
7.5493301e-09
0.38297023
-8.2375474e-09
5.8500522e-09
0.38297015
2.4122196e-08
3.9114158e-09
-6.683072e-08
1.0110252e-09
0.30362388
-2.8961906e-07
9.3487193e-10
0.30362405
-1.9320485e-07
2.5483592e-09
0.30362386
2.5620143e-07
4.7907678e-09
1.1103013e-07
2.6590837e-09
0.24006556
-5.5889674e-07
-1.5062588e-09
0.2400658
-4.4803038e-07
4.4505249e-10
0.24006556
5.1684257e-07
4.2310077e-09
3.6386453e-07
2.825979e-09
0.2099638
-7.2683802e-07
-1.5090408e-09
0.20996397
-6.2949063e-07
-4.0554258e-10
0.2099638
6.7434036e-07
3.2196804e-09
5.4221659e-07
2.2839023e-09
0.20187495
-7.1177713e-07
-8.591353e-10
0.20187495
-6.2803704e-07
-2.7501337e-10
0.20187495
6.5177248e-07
2.2506906e-09
5.3821917e-07
1.5310719e-09
0.20489557
-5.8828652e-07
2.0171324e-10
0.20489545
-5.0052263e-07
2.0108869e-10
0.20489556
5.2491708e-07
1.5572768e-09
4.1065772e-07
8.5041358e-10
0.21364621
-4.5130054e-07
8.4624107e-10
0.21364606
-3.4399935e-07
6.2847589e-10
0.21364618
3.8794231e-07
1.1440519e-09
2.5663471e-07
5.9405506e-10
0.22650634
-3.48734e-07
1.0843318e-09
0.22650622
-2.1492526e-07
8.8948954e-10
0.22650631
2.8734755e-07
9.1627415e-10
1.32066e-07
4.2161747e-10
0.24342281
-2.8426093e-07
1.0616041e-09
0.24342272
-1.2285298e-07
1.0054374e-09
0.24342278
2.255973e-07
7.8788972e-10
4.5493575e-08
3.5731677e-10
0.26468607
-2.4153814e-07
9.0995859e-10
0.26468601
-5.2947873e-08
1.0271925e-09
0.26468605
1.8562118e-07
7.0253695e-10
-1.8791287e-08
3.6069724e-10
0.29048896
-2.0290638e-07
7.0778047e-10
0.29048889
1.3623764e-08
9.9252159e-10
0.29048893
1.494601e-07
6.2572182e-10
-8.0138984e-08
3.8903671e-10
0.32086403
-1.5743606e-07
5.5013165e-10
0.32086396
8.9734258e-08
9.2685344e-10
0.320864
1.0608711e-07
5.5333531e-10
-1.5163757e-07
4.1769465e-10
0.35574217
-1.0168575e-07
4.1485619e-10
0.35574208
1.8030749e-07
8.4612717e-10
0.35574214
5.2118133e-08
4.8659413e-10
-2.3823385e-07
4.3453069e-10
0.39502181
-3.7621105e-08
3.08955e-10
0.39502171
2.8402852e-07
7.5974238e-10
0.39502177
-1.0358889e-08
4.2737153e-10
-3.3853932e-07
4.3507802e-10
0.43861748
2.9872384e-08
2.3122842e-10
0.43861737
3.9593476e-07
6.7344724e-10
0.43861744
-7.6382995e-08
3.7639146e-10
-4.4748695e-07
4.1915125e-10
0.48648592
9.5079952e-08
1.7820745e-10
0.48648581
5.0965029e-07
5.9094239e-10
0.48648587
-1.4017686e-07
3.3457914e-10
-5.5860196e-07
3.8885109e-10
0.53863578
1.5277573e-07
1.4515886e-10
0.53863567
6.1893092e-07
5.1448455e-10
0.53863573
-1.964773e-07
3.0067776e-10
-6.6555747e-07
3.4722377e-10
0.59512689
1.9892937e-07
1.2717792e-10
0.59512679
7.1855068e-07
4.4534805e-10
0.59512684
-2.4123665e-07
2.7323938e-10
-7.6306455e-07
2.9763921e-10
0.65606369
2.3095199e-07
1.1972851e-10
0.6560636
8.0467838e-07
3.8410772e-10
0.65606364
-2.7186182e-07
2.5093143e-10
-8.472462e-07
2.4341892e-10
0.72158604
2.4764083e-07
1.1889318e-10
0.72158597
8.749015e-07
3.3211859e-10
0.72158598
-2.8715161e-07
2.3219931e-10
-9.1565831e-07
1.8801577e-10
0.79185944
2.4895652e-07
1.2149638e-10
0.79185938
9.2804318e-07
2.8727056e-10
0.79185939
-2.8707351e-07
2.176592e-10
-9.6709917e-07
1.3404697e-10
0.86706597
2.3573425e-07
1.2508312e-10
0.86706593
9.6387562e-07
2.4934693e-10
0.86706592
-2.724672e-07
2.0508394e-10
-1.0013207e-06
8.2800238e-11
0.94739651
2.0939768e-07
1.2787062e-10
0.94739649
9.828167e-07
2.1793526e-10
0.94739646
-2.4475877e-07
1.9376856e-10
-1.0187244e-06
3.6085195e-11
1.0330445
1.7171509e-07
1.2866149e-10
1.0330444
9.8566034e-07
1.9224252e-10
1.0330444
-2.0571678e-07
1.8355268e-10
-1.0200888e-06
-4.8292081e-12
1.1242008
1.2461417e-07
1.2673981e-10
1.1242008
9.7336223e-07
1.7167903e-10
1.1242008
-1.5726703e-07
1.7405362e-10
-1.0063546e-06
-4.0451238e-11
1.2210505
7.0055818e-08
1.2177407e-10
1.2210506
9.4689104e-07
1.5575662e-10
1.2210505
-1.0136747e-07
1.649898e-10
-9.7847995e-07
-6.7891754e-11
1.3237697
9.9590675e-09
1.137259e-10
1.3237697
9.071403e-07
1.4396621e-10
1.3237697
-3.9933837e-08
1.5615604e-10
-9.3734897e-07
-8.8352393e-11
1.4325233
-5.3835603e-08
1.0274515e-10
1.4325234
8.5489058e-07
1.3580992e-10
1.4325233
2.5196184e-08
1.4740023e-10
-8.8373483e-07
-1.0213824e-10
1.5474637
-1.1957723e-07
8.9067411e-11
1.5474637
7.9080913e-07
1.3081475e-10
1.5474637
9.2273505e-08
1.3860898e-10
-8.1830004e-07
-1.0964763e-10
1.668729
-1.8560098e-07
7.299069e-11
1.668729
7.1547582e-07
1.2854136e-10
1.668729
1.5963367e-07
1.2969363e-10
-7.41622e-07
-1.1139303e-10
1.7964418
-2.5031939e-07
5.4838512e-11
1.7964419
6.2942435e-07
1.2858575e-10
1.7964418
2.2568805e-07
1.2058742e-10
-6.5423425e-07
-1.0794479e-10
1.9307082
-3.122149e-07
3.4934236e-11
1.9307083
5.3319113e-07
1.3057722e-10
1.9307082
2.8891643e-07
1.1124026e-10
-5.5667499e-07
-9.989568e-11
2.0716162
-3.6983795e-07
1.3586669e-11
2.0716163
4.2736537e-07
1.3417492e-10
2.0716162
3.4786537e-07
1.0161463e-10
-4.4953675e-07
-8.7833339e-11
2.2192347
-4.218132e-07
-8.9163446e-12
2.2192348
3.1263629e-07
1.3906463e-10
2.2192348
4.0115465e-07
9.1683911e-11
-3.3351318e-07
-7.2321743e-11
2.3736125
-4.6685463e-07
-3.2310314e-11
2.3736126
1.8983461e-07
1.4495602e-10
2.3736125
4.4749288e-07
8.143202e-11
-2.0944001e-07
-5.3876428e-11
2.5347767
-5.0378956e-07
-5.6352866e-11
2.5347768
5.9966858e-08
1.5158005e-10
2.5347768
4.8570178e-07
7.0853231e-11
-7.8329089e-08
-3.2908853e-11
2.7027319
-5.3159025e-07
-8.0886039e-11
2.7027321
-7.5757919e-08
1.5868778e-10
2.702732
5.1474843e-07
5.9952578e-11
5.8605841e-08
-1.0101315e-11
2.8774592
-5.4941239e-07
-1.0553953e-10
2.8774593
-2.1590901e-07
1.6604888e-10
2.8774593
5.3378356e-07
4.8745247e-11
1.9992977e-07
1.427154e-11
3.0589147
-5.5663679e-07
-1.3018434e-10
3.0589148
-3.588214e-07
1.7345128e-10
3.0589148
5.4218397e-07
3.7257383e-11
3.439743e-07
3.9812259e-11
3.2470294
-5.5291358e-07
-1.5459833e-10
3.2470295
-5.0258839e-07
1.8071162e-10
3.2470295
5.3959678e-07
2.5526554e-11
4.8883046e-07
6.61481e-11
3.4417078
-5.3820546e-07
-1.7855367e-10
3.4417079
-6.4505784e-07
1.8765332e-10
3.441708
5.2598279e-07
1.3601346e-11
6.323451e-07
9.2922572e-11
3.6428279
-5.1282746e-07
-2.0181291e-10
3.6428281
-7.8382992e-07
1.9412123e-10
3.6428281
5.0165627e-07
1.5420772e-12
7.7211868e-07
1.1978833e-10
3.8502405
-4.7748003e-07
-2.2412621e-10
3.8502407
-9.1625454e-07
1.99982e-10
3.8502407
4.6731803e-07
-1.0579434e-11
9.0550268e-07
1.4640103e-10
4.0637691
-4.332721e-07
-2.4523117e-10
4.0637692
-1.0394264e-06
2.0512583e-10
4.0637693
4.2407839e-07
-2.2678973e-11
1.0295946e-06
1.7241358e-10
4.2832099
-3.8173052e-07
-2.6485433e-10
4.2832101
-1.150177e-06
2.0945643e-10
4.2832101
3.7346632e-07
-3.4659056e-11
1.1412296e-06
1.9747196e-10
4.5083323
-3.2479111e-07
-2.8271651e-10
4.5083324
-1.245064e-06
2.1294214e-10
4.5083324
3.1742011e-07
-4.6407342e-11
1.2369698e-06
2.2121234e-10
4.7388788
-2.6476631e-07
-2.9854112e-10
4.7388789
-1.3203627e-06
2.1554023e-10
4.738879
2.5825446e-07
-5.7794294e-11
1.3130947e-06
2.4326042e-10
4.9745663
-2.0428235e-07
-3.1206719e-10
4.9745664
-1.3720706e-06
2.1724995e-10
4.9745664
1.9859675e-07
-6.8670357e-11
1.3656055e-06
2.6323287e-10
5.2150866
-1.4617717e-07
-3.2306789e-10
5.2150867
-1.3959471e-06
2.1808889e-10
5.2150867
1.4128396e-07
-7.8864783e-11
1.3902636e-06
2.8074308e-10
5.4601076
-9.3347569e-08
-3.3137261e-10
5.4601076
-1.3876283e-06
2.1807323e-10
5.4601076
8.920849e-08
-8.8187305e-11
1.3827044e-06
2.9541144e-10
5.7092744
-4.8531827e-08
-3.3689253e-10
5.7092744
-1.3428828e-06
2.1717992e-10
5.7092744
4.509936e-08
-9.6429366e-11
1.338692e-06
3.0688443e-10
5.9622114
-1.4014452e-08
-3.3963964e-10
5.9622113
-1.2581017e-06
2.1528112e-10
5.9622113
1.1225724e-08
-1.0336319e-10
1.254609e-06
3.1486531e-10
6.2185231
8.7507711e-09
-3.3972694e-10
6.2185229
-1.1311431e-06
2.1203713e-10
6.218523
-1.0980348e-08
-1.0880145e-10
1.1283022e-06
3.191617e-10
6.4777967
1.9576936e-08
-3.3733997e-10
6.4777965
-9.6265595e-07
2.0672813e-10
6.4777965
-2.1356583e-08
-1.1260869e-10
9.6040755e-07
3.1977166e-10
6.7396037
1.996214e-08
-3.3269483e-10
6.7396035
-7.5795843e-07
1.980106e-10
6.7396035
-2.1428708e-08
-1.1457082e-10
7.5624287e-07
3.1706133e-10
7.0035023
1.3313198e-08
-3.2591487e-10
7.0035021
-5.2943007e-07
1.8369311e-10
7.0035021
-1.4616901e-08
-1.1417357e-10
5.2820867e-07
3.1207808e-10
7.2690395
4.6875613e-09
-3.1699117e-10
7.2690392
-2.9911037e-07
1.6066027e-10
7.2690392
-5.9584634e-09
-1.0981336e-10
2.9841321e-07
3.0671533e-10
7.5357533
-4.8235213e-10
-3.0536655e-10
7.5357531
-1.0191656e-07
1.2566917e-10
7.5357531
-7.7109835e-10
-9.7977959e-11
1.0189395e-07
3.0267987e-10
7.8031757
-2.5977992e-10
7.8031756
6.4071527e-11
7.8031756
-6.1001061e-11
2.7306683e-10
0.33521905
4.089105e-08
0.33521897
1.2254917e-08
0.33521903
-5.4254899e-08
-6.2135724e-08
0.38297009
-7.7545143e-08
0.38297017
-5.3895599e-08
0.38297005
5.6916394e-08
-2.0405491e-08
0.30362385
-2.8757163e-07
0.30362404
-2.1769934e-07
0.30362384
2.547233e-07
1.2938845e-07
0.24006556
-5.5497072e-07
0.24006581
-4.5869239e-07
0.24006556
5.0028352e-07
3.6361583e-07
0.20996383
-7.2405108e-07
0.20996401
-6.2865462e-07
0.20996384
6.4720085e-07
5.2728351e-07
0.20187499
-7.1304033e-07
0.20187499
-6.2046658e-07
0.20187499
6.1974215e-07
5.1459016e-07
0.2048956
-5.9515473e-07
0.20489548
-4.9197431e-07
0.20489558
4.9323979e-07
3.8482977e-07
0.21364621
-4.6334504e-07
0.21364606
-3.3814491e-07
0.21364618
3.5945453e-07
2.3324875e-07
0.22650633
-3.6428949e-07
0.22650621
-2.1286948e-07
0.2265063
2.6276337e-07
1.1273918e-07
0.24342279
-3.0137895e-07
0.24342271
-1.2404973e-07
0.24342276
2.0456219e-07
3.0125099e-08
0.26468606
-2.586412e-07
0.264686
-5.6328572e-08
0.26468604
1.6750871e-07
-3.1060588e-08
0.29048895
-2.1900054e-07
0.29048889
9.1366682e-09
0.29048892
1.3373016e-07
-9.0148636e-08
0.32086403
-1.7195283e-07
0.32086396
8.4959341e-08
0.320864
9.2374791e-08
-1.6001631e-07
0.35574217
-1.1441236e-07
0.35574208
1.7577868e-07
0.35574213
4.0200043e-08
-2.453881e-07
0.39502181
-4.8586585e-08
0.3950217
2.8005052e-07
0.39502177
-2.0629432e-08
-3.4471343e-07
0.43861747
2.0536326e-08
0.43861736
3.9265306e-07
0.43861743
-8.5123897e-08
-4.5282453e-07
0.48648591
8.719355e-08
0.4864858
5.0710723e-07
0.48648586
-1.4749793e-07
-5.6319206e-07
0.53863577
1.4614961e-07
0.53863566
6.1710607e-07
0.53863572
-2.024932e-07
-6.6946285e-07
0.59512688
1.9338465e-07
0.59512678
7.1738769e-07
0.59512682
-2.4606921e-07
-7.6633781e-07
0.65606368
2.2632909e-07
0.65606359
8.0410229e-07
0.65606362
-2.7563876e-07
-8.4993799e-07
0.72158602
2.4380203e-07
0.72158595
8.7483221e-07
0.72158597
-2.9000406e-07
-9.1781995e-07
0.79185942
2.4578508e-07
0.79185937
9.2839903e-07
0.79185937
-2.891279e-07
-9.6878308e-07
0.86706595
2.3313201e-07
0.86706592
9.6457787e-07
0.8670659
-2.7384497e-07
-1.002581e-06
0.94739649
2.0728226e-07
0.94739647
9.8379259e-07
0.94739645
-2.4557384e-07
-1.0196145e-06
1.0330444
1.7001713e-07
1.0330444
9.8684247e-07
1.0330444
-2.0607339e-07
-1.0206597e-06
1.1242008
1.2327494e-07
1.1242008
9.7468877e-07
1.1242008
-1.572591e-07
-1.0066565e-06
1.2210505
6.9025591e-08
1.2210506
9.4830606e-07
1.2210505
-1.0107836e-07
-9.7855519e-07
1.3237697
9.195693e-09
1.3237697
9.0859375e-07
1.3237697
-3.9436703e-08
-9.3723397e-07
1.4325233
-5.4367791e-08
1.4325233
8.5633795e-07
1.4325233
2.5837574e-08
-8.834598e-07
1.5474637
-1.1990821e-07
1.5474637
7.9221099e-07
1.5474637
9.3004044e-08
-8.1788901e-07
1.6687289
-1.8575579e-07
1.668729
7.1679746e-07
1.668729
1.604059e-07
-7.4109299e-07
1.7964418
-2.5031868e-07
1.7964419
6.306354e-07
1.7964418
2.2646124e-07
-6.5359985e-07
1.9307082
-3.1207535e-07
1.9307083
5.3426516e-07
1.9307082
2.8965575e-07
-5.5594295e-07
2.0716161
-3.6957276e-07
2.0716162
4.2827963e-07
2.0716162
3.4854112e-07
-4.4871075e-07
2.2192347
-4.2143248e-07
2.2192348
3.1337144e-07
2.2192347
4.0174163e-07
-3.3259359e-07
2.3736125
-4.6636583e-07
2.3736126
1.9037456e-07
2.3736125
4.4796979e-07
-2.0842465e-07
2.5347767
-5.0319789e-07
2.5347768
6.0298601e-08
2.5347768
4.8605088e-07
-7.72137e-08
2.7027319
-5.3089949e-07
2.702732
-7.5644403e-08
2.702732
5.1495517e-07
5.9826183e-08
2.8774592
-5.4862467e-07
2.8774593
-2.1602078e-07
2.8774593
5.3383633e-07
2.0126041e-07
3.0589147
-5.5575346e-07
3.0589148
-3.5916255e-07
3.0589148
5.4207404e-07
3.4542033e-07
3.2470294
-5.5193564e-07
3.2470295
-5.0315996e-07
3.2470295
5.393182e-07
4.9039609e-07
3.4417078
-5.3713407e-07
3.4417079
-6.4585765e-07
3.441708
5.255325e-07
6.34033e-07
3.6428279
-5.1166443e-07
3.6428281
-7.8485241e-07
3.6428281
5.010342e-07
7.7392944e-07
3.8502405
-4.7622834e-07
3.8502407
-9.1749044e-07
3.8502407
4.6652733e-07
9.0743414e-07
4.0637691
-4.3193651e-07
4.0637692
-1.0408624e-06
4.0637693
4.2312575e-07
1.0316412e-06
4.28321
-3.8031819e-07
4.2832101
-1.1517953e-06
4.2832101
3.7236238e-07
1.1433818e-06
4.5083323
-3.2331236e-07
4.5083324
-1.2468415e-06
4.5083325
3.1617995e-07
1.2392129e-06
4.7388788
-2.632354e-07
4.7388789
-1.3222708e-06
4.738879
2.5689814e-07
1.3154082e-06
4.9745664
-2.0271833e-07
4.9745664
-1.3740742e-06
4.9745665
1.9714989e-07
1.3679621e-06
5.2150866
-1.4460468e-07
5.2150867
-1.3980039e-06
5.2150867
1.3977818e-07
1.3926276e-06
5.4601076
-9.179746e-08
5.4601076
-1.3896884e-06
5.4601076
8.7681698e-08
1.3850304e-06
5.7092745
-4.7041133e-08
5.7092744
-1.3448881e-06
5.7092745
4.3595563e-08
1.3409236e-06
5.9622114
-1.2625188e-08
5.9622113
-1.2599867e-06
5.9622113
9.7943355e-09
1.2566776e-06
6.2185231
9.9949842e-09
6.218523
-1.1328383e-06
6.218523
-1.2286189e-08
1.1301278e-06
6.4777967
2.063703e-08
6.4777965
-9.6409383e-07
6.4777965
-2.2483621e-08
9.6190398e-07
6.7396037
2.0812527e-08
6.7396035
-7.5909213e-07
6.7396035
-2.2320383e-08
7.5732928e-07
7.0035023
1.3953175e-08
7.0035021
-5.3026744e-07
7.0035021
-1.5207824e-08
5.2884243e-07
7.2690395
5.1484621e-09
7.2690392
-2.9978827e-07
7.2690392
-6.146525e-09
2.9866161e-07
7.5357533
-1.4530891e-10
7.5357531
-1.0272414e-07
7.5357531
-3.9662598e-10
1.0199331e-07
7.8031758
7.8031756
7.8031756
)
;

boundaryField
{
    movingWall
    {
        type            calculated;
        value           uniform 0;
    }
    CPLReceiveMD
    {
        type            calculated;
        value           uniform 0;
    }
    streamwiseIn
    {
        type            cyclic;
        value           nonuniform List<scalar> 
120
(
-0.33521912
-0.38297008
-0.30362367
-0.24006532
-0.20996363
-0.20187494
-0.20489567
-0.21364632
-0.22650643
-0.24342286
-0.26468611
-0.29048899
-0.32086407
-0.35574222
-0.39502187
-0.43861755
-0.48648599
-0.53863584
-0.59512694
-0.65606372
-0.72158605
-0.79185944
-0.86706596
-0.94739648
-1.0330444
-1.1242008
-1.2210505
-1.3237696
-1.4325232
-1.5474636
-1.6687289
-1.7964417
-1.9307081
-2.0716161
-2.2192346
-2.3736124
-2.5347766
-2.7027319
-2.8774591
-3.0589147
-3.2470294
-3.4417078
-3.642828
-3.8502406
-4.0637692
-4.28321
-4.5083323
-4.7388789
-4.9745664
-5.2150867
-5.4601076
-5.7092745
-5.9622114
-6.2185231
-6.4777967
-6.7396037
-7.0035023
-7.2690395
-7.5357533
-7.8031757
-0.3352191
-0.38296997
-0.30362366
-0.24006532
-0.20996367
-0.201875
-0.20489571
-0.21364633
-0.22650642
-0.24342285
-0.2646861
-0.29048899
-0.32086407
-0.35574222
-0.39502187
-0.43861754
-0.48648598
-0.53863583
-0.59512692
-0.65606371
-0.72158604
-0.79185942
-0.86706594
-0.94739647
-1.0330444
-1.1242008
-1.2210505
-1.3237696
-1.4325232
-1.5474636
-1.6687289
-1.7964417
-1.9307081
-2.0716161
-2.2192346
-2.3736124
-2.5347766
-2.7027319
-2.8774591
-3.0589147
-3.2470294
-3.4417078
-3.642828
-3.8502406
-4.0637692
-4.28321
-4.5083324
-4.7388789
-4.9745664
-5.2150867
-5.4601076
-5.7092745
-5.9622114
-6.2185231
-6.4777967
-6.7396037
-7.0035023
-7.2690395
-7.5357533
-7.8031758
)
;
    }
    streamwiseOut
    {
        type            cyclic;
        value           nonuniform List<scalar> 
120
(
0.33521912
0.38297008
0.30362367
0.24006532
0.20996363
0.20187494
0.20489567
0.21364632
0.22650643
0.24342286
0.26468611
0.29048899
0.32086407
0.35574222
0.39502187
0.43861755
0.48648599
0.53863584
0.59512694
0.65606372
0.72158605
0.79185944
0.86706596
0.94739648
1.0330444
1.1242008
1.2210505
1.3237696
1.4325232
1.5474636
1.6687289
1.7964417
1.9307081
2.0716161
2.2192346
2.3736124
2.5347766
2.7027319
2.8774591
3.0589147
3.2470294
3.4417078
3.642828
3.8502406
4.0637692
4.28321
4.5083323
4.7388789
4.9745664
5.2150867
5.4601076
5.7092745
5.9622114
6.2185231
6.4777967
6.7396037
7.0035023
7.2690395
7.5357533
7.8031757
0.3352191
0.38296997
0.30362366
0.24006532
0.20996367
0.201875
0.20489571
0.21364633
0.22650642
0.24342285
0.2646861
0.29048899
0.32086407
0.35574222
0.39502187
0.43861754
0.48648598
0.53863583
0.59512692
0.65606371
0.72158604
0.79185942
0.86706594
0.94739647
1.0330444
1.1242008
1.2210505
1.3237696
1.4325232
1.5474636
1.6687289
1.7964417
1.9307081
2.0716161
2.2192346
2.3736124
2.5347766
2.7027319
2.8774591
3.0589147
3.2470294
3.4417078
3.642828
3.8502406
4.0637692
4.28321
4.5083324
4.7388789
4.9745664
5.2150867
5.4601076
5.7092745
5.9622114
6.2185231
6.4777967
6.7396037
7.0035023
7.2690395
7.5357533
7.8031758
)
;
    }
    front
    {
        type            cyclic;
        value           nonuniform 0();
    }
    back
    {
        type            cyclic;
        value           nonuniform 0();
    }
    procBoundary1to0
    {
        type            processor;
        value           nonuniform List<scalar> 
240
(
8.1247835e-09
3.9909374e-09
-6.3682229e-10
-4.7450842e-09
7.9820829e-09
4.4446045e-09
1.9215097e-09
-1.3791469e-09
9.6517794e-10
1.4469068e-09
2.9118978e-09
4.9223147e-10
-2.2534665e-09
-3.3634954e-10
2.4038648e-09
1.0450428e-09
-2.9628774e-09
-9.2727755e-10
1.6940237e-09
9.3732414e-10
-1.951281e-09
-5.8290165e-10
1.0362568e-09
5.8731861e-10
-8.369129e-10
6.0345896e-11
5.7418787e-10
2.2684841e-10
-6.6395122e-11
6.0707433e-10
3.6814029e-10
2.0021312e-10
3.2819671e-10
9.3929305e-10
3.1679246e-10
2.2566652e-10
4.6569996e-10
1.0943294e-09
3.2760423e-10
2.9030812e-10
4.6404258e-10
1.1349289e-09
3.4756836e-10
3.7515482e-10
4.0259206e-10
1.1045782e-09
3.5625752e-10
4.4991123e-10
3.2669347e-10
1.0338976e-09
3.5103978e-10
5.004628e-10
2.6044982e-10
9.4273324e-10
3.3769708e-10
5.2309458e-10
1.8230973e-10
8.433788e-10
3.185293e-10
5.1973232e-10
1.349492e-10
7.4353753e-10
2.9695402e-10
4.9472026e-10
1.0549727e-10
6.481341e-10
2.7663609e-10
4.5319606e-10
9.0570832e-11
5.6010756e-10
2.5843246e-10
4.001048e-10
8.6409803e-11
4.8103563e-10
2.4271661e-10
3.3989421e-10
8.9432956e-11
4.1153831e-10
2.2928557e-10
2.7640304e-10
9.649541e-11
3.5156305e-10
2.1671889e-10
2.1281634e-10
1.0503201e-10
3.0076765e-10
2.0599737e-10
1.5171947e-10
1.1305851e-10
2.5849962e-10
1.963427e-10
9.5145106e-11
1.1915589e-10
2.2424775e-10
1.874285e-10
4.4641979e-11
1.224033e-10
1.9658094e-10
1.7897271e-10
1.1088168e-12
1.2229393e-10
1.7460164e-10
1.7076449e-10
-3.5470809e-11
1.1865557e-10
1.576812e-10
1.6264612e-10
-6.4359033e-11
1.1157212e-10
1.4519959e-10
1.5450144e-10
-8.5930039e-11
1.0128552e-10
1.3657347e-10
1.4624471e-10
-1.0051228e-10
8.8102184e-11
1.3126582e-10
1.3781523e-10
-1.0858125e-10
7.2372923e-11
1.2878965e-10
1.2916061e-10
-1.1071284e-10
5.4461067e-11
1.2870629e-10
1.2023959e-10
-1.0752669e-10
3.4719798e-11
1.3062033e-10
1.1102209e-10
-9.9652124e-11
1.3480091e-11
1.3417361e-10
1.0148598e-10
-8.7703448e-11
-8.9539313e-12
1.3904004e-10
9.1615841e-11
-7.2264009e-11
-3.2305768e-11
1.4492126e-10
8.1403752e-11
-5.3873975e-11
-5.6324467e-11
1.5154288e-10
7.0850078e-11
-3.297939e-11
-8.0859434e-11
1.5865243e-10
5.9964371e-11
-1.0168555e-11
-1.0550681e-10
1.6601741e-10
4.8765023e-11
1.421102e-11
-1.3015023e-10
1.7342456e-10
3.7280456e-11
3.9759875e-11
-1.5456581e-10
1.8068965e-10
2.554996e-11
6.6104037e-11
-1.7852437e-10
1.8763565e-10
1.3623316e-11
9.2886337e-11
-2.0178741e-10
1.9410734e-10
1.5615484e-12
1.1975901e-10
-2.241046e-10
1.9997134e-10
-1.0562935e-11
1.4637762e-10
-2.4521324e-10
2.0511786e-10
-2.2665544e-11
1.7239513e-10
-2.6483968e-10
2.0945426e-10
-3.4648487e-11
1.9745758e-10
-2.8270474e-10
2.1294094e-10
-4.6399349e-11
2.212012e-10
-2.9853185e-10
2.1553968e-10
-5.7788466e-11
2.4325196e-10
-3.1206005e-10
2.1724998e-10
-6.8666329e-11
2.6322648e-10
-3.2306241e-10
2.1808937e-10
-7.8862121e-11
2.8073824e-10
-3.3136858e-10
2.1807417e-10
-8.8185684e-11
2.9540779e-10
-3.3688972e-10
2.1718115e-10
-9.6428564e-11
3.0688179e-10
-3.3963782e-10
2.1528252e-10
-1.0336285e-10
3.1486359e-10
-3.3972564e-10
2.1203848e-10
-1.0880153e-10
3.1916081e-10
-3.3733913e-10
2.0672953e-10
-1.1260901e-10
3.1977121e-10
-3.3269416e-10
1.9801204e-10
-1.1457142e-10
3.1706115e-10
-3.2591412e-10
1.8369436e-10
-1.1417407e-10
3.1207786e-10
-3.1699034e-10
1.6066128e-10
-1.0981341e-10
3.0671476e-10
-3.0536529e-10
1.256696e-10
-9.7977793e-11
3.0267905e-10
-2.5977863e-10
6.4071534e-11
-6.1000978e-11
2.7306608e-10
)
;
    }
    procBoundary1to0throughback
    {
        type            processorCyclic;
        value           nonuniform List<scalar> 
240
(
1.937468e-08
1.6707592e-08
9.9384625e-09
6.548737e-09
3.8050181e-09
2.0475369e-09
9.004794e-10
9.5030753e-11
-2.9331444e-10
-4.2909628e-10
-4.303893e-10
-3.7389747e-10
-3.0224633e-10
-2.3604084e-10
-1.8217031e-10
-1.4156302e-10
-1.1411396e-10
-9.879274e-11
-9.3394845e-11
-9.5006998e-11
-1.0073968e-10
-1.080911e-10
-1.1512156e-10
-1.2042271e-10
-1.2305837e-10
-1.2250485e-10
-1.1855838e-10
-1.1128108e-10
-1.0088144e-10
-8.7648258e-11
-7.1912905e-11
-5.4022529e-11
-3.4318938e-11
-1.3125015e-11
9.2607762e-12
3.2565729e-11
5.6541147e-11
8.1037985e-11
1.0564984e-10
1.302643e-10
1.546558e-10
1.7859454e-10
2.0184154e-10
2.2414587e-10
2.4524432e-10
2.6486291e-10
2.8272191e-10
2.985443e-10
3.1206889e-10
3.2306855e-10
3.3137276e-10
3.3689232e-10
3.3963907e-10
3.3972607e-10
3.3733899e-10
3.3269385e-10
3.2591389e-10
3.169903e-10
3.0536638e-10
2.5978087e-10
-2.291288e-09
1.8081133e-09
4.6664185e-09
5.6641867e-09
5.574584e-09
4.7609786e-09
3.6881639e-09
2.6591497e-09
1.7742177e-09
1.0547551e-09
6.0021225e-10
2.535205e-10
1.0891477e-11
-1.5051674e-10
-2.5015477e-10
-3.0433166e-10
-3.2628871e-10
-3.2649311e-10
-3.1296368e-10
-2.9161888e-10
-2.666636e-10
-2.4110751e-10
-2.1687982e-10
-1.9542187e-10
-1.7678977e-10
-1.6112515e-10
-1.4858745e-10
-1.3912503e-10
-1.3256285e-10
-1.2865463e-10
-1.2711889e-10
-1.2766122e-10
-1.2998657e-10
-1.3380625e-10
-1.3884201e-10
-1.4482811e-10
-1.5151237e-10
-1.5865741e-10
-1.6604077e-10
-1.7345591e-10
-1.8072276e-10
-1.8766705e-10
-1.9413523e-10
-1.9999498e-10
-2.0513708e-10
-2.0946983e-10
-2.1295306e-10
-2.1554893e-10
-2.1725677e-10
-2.180942e-10
-2.180773e-10
-2.1718288e-10
-2.1528288e-10
-2.12038e-10
-2.0672836e-10
-1.9801064e-10
-1.8369325e-10
-1.6066033e-10
-1.2566899e-10
-6.4070875e-11
2.5089401e-09
1.2267785e-09
-8.1532642e-10
-1.2680387e-09
-1.0337655e-09
-5.2885504e-10
-1.2074122e-10
7.115536e-11
1.0212203e-10
5.6667953e-11
-8.8270245e-12
-6.7568006e-11
-1.1168983e-10
-1.4412267e-10
-1.6582598e-10
-1.7930525e-10
-1.8731082e-10
-1.9138364e-10
-1.9299995e-10
-1.9218626e-10
-1.8997788e-10
-1.8654847e-10
-1.8220486e-10
-1.7714772e-10
-1.7148397e-10
-1.6529203e-10
-1.5863008e-10
-1.5154211e-10
-1.4405707e-10
-1.3618777e-10
-1.2794149e-10
-1.1932152e-10
-1.1032744e-10
-1.0095785e-10
-9.1212576e-11
-8.1094793e-11
-7.0612881e-11
-5.9782023e-11
-4.8624838e-11
-3.7173017e-11
-2.5467954e-11
-1.3561114e-11
-1.5148009e-12
1.0597516e-11
2.2690581e-11
3.4666258e-11
4.6411584e-11
5.7796495e-11
6.8671156e-11
7.8864663e-11
8.8186624e-11
9.6428227e-11
1.0336185e-10
1.0880007e-10
1.1260718e-10
1.1456934e-10
1.141723e-10
1.0981239e-10
9.7977783e-11
6.1001892e-11
4.3121815e-09
5.2232483e-09
3.2910836e-09
2.3459049e-09
2.2957661e-09
2.5788195e-09
2.7387751e-09
2.6171021e-09
2.2517034e-09
1.7201981e-09
1.3057309e-09
8.9861466e-10
5.5892622e-10
2.9478588e-10
1.023608e-10
-2.7758344e-11
-1.0680357e-10
-1.4591525e-10
-1.5523046e-10
-1.4350121e-10
-1.18012e-10
-8.4673044e-11
-4.8136108e-11
-1.1972255e-11
2.1395844e-11
5.0824753e-11
7.4710639e-11
9.2825102e-11
1.0503467e-10
1.1149391e-10
1.1254329e-10
1.0863845e-10
1.0029409e-10
8.8044242e-11
7.2416748e-11
5.3918521e-11
3.2953836e-11
1.010952e-11
-1.4283975e-11
-3.9835015e-11
-6.6174828e-11
-9.2949507e-11
-1.1981344e-10
-1.4642318e-10
-1.7243238e-10
-1.9748748e-10
-2.2122496e-10
-2.4327039e-10
-2.6324071e-10
-2.8074906e-10
-2.954161e-10
-3.0688802e-10
-3.148681e-10
-3.1916397e-10
-3.1977373e-10
-3.1706326e-10
-3.1207987e-10
-3.06717e-10
-3.0268092e-10
-2.7306701e-10
)
;
    }
}


// ************************************************************************* //
