/*--------------------------------*- C++ -*----------------------------------*\
| =========                 |                                                 |
| \\      /  F ield         | OpenFOAM: The Open Source CFD Toolbox           |
|  \\    /   O peration     | Version:  3.0.1                                 |
|   \\  /    A nd           | Web:      www.OpenFOAM.org                      |
|    \\/     M anipulation  |                                                 |
\*---------------------------------------------------------------------------*/
FoamFile
{
    version     2.0;
    format      ascii;
    class       volVectorField;
    location    "425";
    object      U;
}
// * * * * * * * * * * * * * * * * * * * * * * * * * * * * * * * * * * * * * //

dimensions      [0 1 -1 0 0 0 0];

internalField   nonuniform List<vector> 
480
(
(0.021117482 1.3610058e-09 -2.2339152e-11)
(0.021117475 1.123686e-09 4.4504207e-11)
(0.021117474 -1.5836275e-09 6.0890487e-11)
(0.02111748 -1.5950306e-09 6.6597444e-11)
(0.024125605 8.9572976e-10 -1.6133743e-11)
(0.024125615 8.7868187e-10 3.9428415e-11)
(0.024125615 -1.3759599e-09 6.3993657e-11)
(0.024125599 -2.024914e-09 6.9794955e-11)
(0.019127091 -2.4906036e-09 -3.3855448e-12)
(0.01912712 -1.2664337e-09 2.9595608e-11)
(0.019127118 1.9521487e-09 6.0414259e-11)
(0.01912709 1.183921e-11 6.3139806e-11)
(0.015123164 -6.9090854e-09 9.508581e-12)
(0.015123201 -5.236324e-09 1.9797894e-11)
(0.015123199 6.305926e-09 5.4688252e-11)
(0.015123166 3.8980895e-09 5.1048631e-11)
(0.013226875 -1.0746306e-08 1.7904066e-11)
(0.013226905 -9.1081095e-09 1.1757962e-11)
(0.013226903 1.0000563e-08 4.7642321e-11)
(0.013226879 7.7379749e-09 3.7778259e-11)
(0.01271732 -1.1963141e-08 2.2215658e-11)
(0.012717329 -1.0581369e-08 5.8034968e-12)
(0.012717326 1.1082081e-08 4.0259278e-11)
(0.012717324 9.1723334e-09 2.5865062e-11)
(0.012907616 -1.0522201e-08 2.2787014e-11)
(0.012907609 -9.2168951e-09 1.5849473e-12)
(0.012907606 9.5553778e-09 3.3120162e-11)
(0.012907617 7.7921404e-09 1.6114235e-11)
(0.013458873 -8.1748782e-09 2.0919779e-11)
(0.013458862 -6.6519116e-09 -1.2564804e-12)
(0.013458859 7.177235e-09 2.659833e-11)
(0.013458873 5.2483413e-09 8.6715351e-12)
(0.014269009 -6.1882572e-09 1.8081002e-11)
(0.014269001 -4.2738482e-09 -3.0105605e-12)
(0.014268999 5.201948e-09 2.0924531e-11)
(0.014269008 2.925741e-09 3.40276e-12)
(0.015334678 -4.9041464e-09 1.508349e-11)
(0.015334674 -2.5525875e-09 -3.9232133e-12)
(0.015334671 3.9520515e-09 1.6177264e-11)
(0.015334677 1.2830826e-09 -6.775374e-14)
(0.016674178 -4.1286025e-09 1.2296048e-11)
(0.016674177 -1.3476812e-09 -4.2598326e-12)
(0.016674174 3.218461e-09 1.2331438e-11)
(0.016674178 1.657844e-10 -2.1497841e-12)
(0.018299658 -3.5405918e-09 9.8700308e-12)
(0.018299657 -3.3182822e-10 -4.1849238e-12)
(0.018299654 2.6714587e-09 9.3049749e-12)
(0.018299658 -7.643825e-10 -3.2063171e-12)
(0.020213168 -2.8996375e-09 7.8089e-12)
(0.020213166 7.6590473e-10 -3.8550005e-12)
(0.020213163 2.0668433e-09 6.9727773e-12)
(0.020213168 -1.7842316e-09 -3.5646008e-12)
(0.022410354 -2.0966176e-09 6.1108174e-12)
(0.02241035 2.0839377e-09 -3.3902251e-12)
(0.022410347 1.2948262e-09 5.1983554e-12)
(0.022410354 -3.0341805e-09 -3.4858973e-12)
(0.024884817 -1.130039e-09 4.7245239e-12)
(0.024884812 3.6406799e-09 -2.8780086e-12)
(0.024884808 3.5514935e-10 3.855264e-12)
(0.024884817 -4.5323184e-09 -3.1635338e-12)
(0.027631173 -6.36312e-11 3.6183513e-12)
(0.027631167 5.3761607e-09 -2.3747465e-12)
(0.027631162 -6.8681893e-10 2.8482053e-12)
(0.027631172 -6.2172855e-09 -2.7296965e-12)
(0.030646695 1.0118898e-09 2.7480412e-12)
(0.03064669 7.19284e-09 -1.9135819e-12)
(0.030646685 -1.7392489e-09 2.0992919e-12)
(0.030646695 -7.989934e-09 -2.2692174e-12)
(0.03393193 2.0058433e-09 2.0710815e-12)
(0.033931926 8.9858579e-09 -1.510954e-12)
(0.03393192 -2.7107917e-09 1.5439723e-12)
(0.03393193 -9.7439631e-09 -1.8321428e-12)
(0.037490646 2.8430357e-09 1.5499254e-12)
(0.037490643 1.0661837e-08 -1.1720749e-12)
(0.037490637 -3.5258066e-09 1.1314678e-12)
(0.037490646 -1.1384829e-08 -1.4442915e-12)
(0.041329423 3.4706966e-09 1.1521757e-12)
(0.041329422 1.2148252e-08 -8.9483924e-13)
(0.041329416 -4.1312967e-09 8.2863064e-13)
(0.041329423 -1.283913e-08 -1.1155347e-12)
(0.045457071 3.8593969e-09 8.507803e-13)
(0.045457072 1.3395992e-08 -6.7335126e-13)
(0.045457066 -4.4977929e-09 6.0615464e-13)
(0.045457072 -1.4057134e-08 -8.46342e-13)
(0.049884017 4.0003722e-09 6.2375236e-13)
(0.049884021 1.4377593e-08 -4.9999946e-13)
(0.049884013 -4.6165951e-09 4.4197793e-13)
(0.049884018 -1.5010928e-08 -6.3189351e-13)
(0.05462173 3.901127e-09 4.5381538e-13)
(0.054621737 1.5083128e-08 -3.6668602e-13)
(0.054621729 -4.4952946e-09 3.2097586e-13)
(0.054621732 -1.5690228e-08 -4.649154e-13)
(0.059682235 3.5806529e-09 3.2730973e-13)
(0.059682245 1.551527e-08 -2.6567399e-13)
(0.059682237 -4.1529398e-09 2.3194193e-13)
(0.059682239 -1.6097419e-08 -3.3739778e-13)
(0.065077716 3.0651319e-09 2.3373265e-13)
(0.065077728 1.5684604e-08 -1.902497e-13)
(0.06507772 -3.6157314e-09 1.6656283e-13)
(0.065077721 -1.6242832e-08 -2.415966e-13)
(0.070820206 2.3845012e-09 1.6500528e-13)
(0.070820221 1.5605723e-08 -1.3461194e-13)
(0.070820212 -2.9135927e-09 1.1868642e-13)
(0.070820212 -1.6140823e-08 -1.7054448e-13)
(0.076921356 1.5700031e-09 1.1495667e-13)
(0.076921372 1.5294354e-08 -9.4135711e-14)
(0.076921363 -2.0777304e-09 8.375894e-14)
(0.076921363 -1.5806919e-08 -1.1850269e-13)
(0.083392255 6.5263332e-10 7.8811064e-14)
(0.083392274 1.4765511e-08 -6.503823e-14)
(0.083392265 -1.1390925e-09 5.8450689e-14)
(0.083392264 -1.5255975e-08 -8.1026895e-14)
(0.090243303 -3.376935e-10 5.3004134e-14)
(0.090243324 1.4032538e-08 -4.4353326e-14)
(0.090243313 -1.2753708e-10 4.0255706e-14)
(0.090243313 -1.4501207e-08 -5.444064e-14)
(0.097484092 -1.372474e-09 3.4768786e-14)
(0.097484115 1.3106862e-08 -2.9828776e-14)
(0.097484104 9.2846713e-10 2.7197011e-14)
(0.097484103 -1.3553947e-08 -3.5826377e-14)
(0.10512332 -2.4246318e-09 2.206054e-14)
(0.10512335 1.1998238e-08 -1.9750678e-14)
(0.10512334 2.0018515e-09 1.7892712e-14)
(0.10512334 -1.2423894e-08 -2.2986836e-14)
(0.11316873 -3.4683907e-09 1.3349582e-14)
(0.11316876 1.0715318e-08 -1.2841651e-14)
(0.11316874 3.0668362e-09 1.1366777e-14)
(0.11316874 -1.1119681e-08 -1.4260577e-14)
(0.12162698 -4.4791291e-09 7.4976498e-15)
(0.12162701 9.2663955e-09 -8.1663558e-15)
(0.121627 4.0987713e-09 6.8644154e-15)
(0.121627 -9.6496155e-09 -8.4320359e-15)
(0.13050362 -5.4332903e-09 3.6672663e-15)
(0.13050365 7.6602099e-09 -5.0494079e-15)
(0.13050364 5.0740475e-09 3.8099778e-15)
(0.13050364 -8.0224768e-09 -4.620837e-15)
(0.13980301 -6.3084106e-09 1.2473749e-15)
(0.13980304 5.9067322e-09 -3.0078807e-15)
(0.13980303 5.9701307e-09 1.7866886e-15)
(0.13980303 -6.2482987e-09 -2.1986667e-15)
(0.1495282 -7.0832871e-09 -2.0668423e-16)
(0.14952823 4.0178772e-09 -1.6990309e-15)
(0.14952822 6.7657368e-09 4.9294037e-16)
(0.14952822 -4.3390713e-09 -7.1388371e-16)
(0.15968091 -7.738292e-09 -1.0105277e-15)
(0.15968094 2.0081095e-09 -8.8415247e-16)
(0.15968093 7.4411507e-09 -2.931062e-16)
(0.15968093 -2.309341e-09 1.6701026e-16)
(0.17026142 -8.2558188e-09 -1.3898203e-15)
(0.17026146 -1.0507328e-10 -3.9390278e-16)
(0.17026145 7.9786809e-09 -7.3371691e-16)
(0.17026145 -1.7668497e-10 6.398251e-16)
(0.18126855 -8.6208468e-09 -1.5039346e-15)
(0.18126859 -2.3007782e-09 -1.1254725e-16)
(0.18126857 8.3632262e-09 -9.4273287e-16)
(0.18126858 2.0379326e-09 8.5074555e-16)
(0.19269953 -8.8215854e-09 -1.4619398e-15)
(0.19269957 -4.5544682e-09 3.637769e-17)
(0.19269955 8.5829252e-09 -1.000193e-15)
(0.19269957 4.3099141e-09 9.0001096e-16)
(0.20455001 -8.8501662e-09 -1.3349028e-15)
(0.20455005 -6.8378097e-09 1.0469727e-16)
(0.20455004 8.6298543e-09 -9.650851e-16)
(0.20455005 6.6108815e-09 8.5614449e-16)
(0.21681399 -8.7033476e-09 -1.1681955e-15)
(0.21681402 -9.118592e-09 1.2707619e-16)
(0.21681401 8.5007334e-09 -8.776477e-16)
(0.21681402 8.9085986e-09 7.6334586e-16)
(0.22948376 -8.3831857e-09 -9.9395903e-16)
(0.2294838 -1.1360687e-08 1.2105898e-16)
(0.22948378 8.1975976e-09 -7.614527e-16)
(0.2294838 1.1166931e-08 6.5327937e-16)
(0.24254994 -7.897624e-09 -8.2724122e-16)
(0.24254997 -1.3524019e-08 9.9793099e-17)
(0.24254996 7.7283876e-09 -6.3547045e-16)
(0.24254997 1.3345819e-08 5.4181698e-16)
(0.25600139 -7.2609543e-09 -6.7643958e-16)
(0.25600143 -1.5564511e-08 7.1515172e-17)
(0.25600141 7.1074086e-09 -5.115532e-16)
(0.25600143 1.540122e-08 4.380719e-16)
(0.2698253 -6.4940894e-09 -5.4563432e-16)
(0.26982534 -1.7433984e-08 4.6200652e-17)
(0.26982532 6.3556008e-09 -3.9887655e-16)
(0.26982534 1.7285005e-08 3.4658466e-16)
(0.28400712 -5.6245866e-09 -4.3335398e-16)
(0.28400715 -1.9080001e-08 2.0933274e-17)
(0.28400714 5.5005568e-09 -2.9960203e-16)
(0.28400716 1.89448e-08 2.6883902e-16)
(0.29853064 -4.6863428e-09 -3.3811762e-16)
(0.29853067 -2.044569e-08 3.2676453e-18)
(0.29853066 4.5762092e-09 -2.1696016e-16)
(0.29853068 2.03238e-08 2.002133e-16)
(0.31337803 -3.7188689e-09 -2.585569e-16)
(0.31337806 -2.146965e-08 -1.2128202e-17)
(0.31337804 3.6220938e-09 -1.4910198e-16)
(0.31337806 2.1360664e-08 1.4631221e-16)
(0.32852986 -2.7660198e-09 -1.9661838e-16)
(0.32852988 -2.2086193e-08 -2.5116856e-17)
(0.32852986 2.6820653e-09 -9.7829998e-17)
(0.32852989 2.1989749e-08 1.0564074e-16)
(0.34396521 -1.8740194e-09 -1.4435738e-16)
(0.34396524 -2.2226363e-08 -3.8419689e-17)
(0.34396521 1.8023022e-09 -5.8962947e-17)
(0.34396524 2.2142106e-08 7.4794974e-17)
(0.35966174 -1.0885844e-09 -1.0009862e-16)
(0.35966176 -2.1820527e-08 -4.6792442e-17)
(0.35966174 1.0284083e-09 -2.9053682e-17)
(0.35966177 2.1748059e-08 4.8186691e-17)
(0.37559577 -4.5092565e-10 -6.4876704e-17)
(0.37559579 -2.080387e-08 -5.1336e-17)
(0.37559576 4.0142251e-10 -1.1679801e-17)
(0.37559579 2.0742696e-08 2.9317734e-17)
(0.3917424 7.6159999e-12 -4.5305589e-17)
(0.39174241 -1.9126856e-08 -4.932811e-17)
(0.39174239 -4.7513572e-11 3.3629629e-18)
(0.39174241 1.9076332e-08 1.3451396e-17)
(0.40807561 2.7235364e-10 -2.9244473e-17)
(0.40807562 -1.6772431e-08 -5.0294748e-17)
(0.4080756 -3.0423251e-10 1.211519e-17)
(0.40807562 1.6731753e-08 8.0389784e-18)
(0.42456843 3.5227727e-10 -2.2617492e-17)
(0.42456843 -1.3778289e-08 -5.127432e-17)
(0.4245684 -3.7805717e-10 2.0884507e-17)
(0.42456843 1.3746587e-08 6.5460812e-18)
(0.441193 2.8560394e-10 -2.4976616e-17)
(0.441193 -1.0261258e-08 -4.4591248e-17)
(0.44119297 -3.0733541e-10 1.7396882e-17)
(0.441193 1.0237796e-08 8.7831735e-18)
(0.45792079 1.409537e-10 -2.808575e-17)
(0.45792079 -6.473634e-09 -3.550983e-17)
(0.45792077 -1.6068591e-10 2.3137474e-18)
(0.45792079 6.4583472e-09 2.0747248e-17)
(0.47472271 1.3394959e-11 -4.2203964e-17)
(0.47472271 -2.9606854e-09 -1.5983315e-17)
(0.47472269 -3.5352623e-11 -5.2835194e-18)
(0.47472271 2.9550534e-09 2.9150218e-17)
(0.49156927 -2.4125959e-11 -4.1888215e-17)
(0.49156927 -7.1544977e-10 -1.3210918e-18)
(0.49156926 1.5097569e-11 -2.7323815e-18)
(0.49156927 7.1491713e-10 2.5438287e-17)
(0.021117481 1.0535835e-09 1.3505828e-09)
(0.021117473 9.3641051e-10 2.6863093e-10)
(0.021117472 -1.2367811e-09 1.5982917e-10)
(0.021117478 -1.3173295e-09 2.088264e-10)
(0.024125597 3.8970078e-10 1.4159925e-09)
(0.024125611 2.7910139e-10 4.9330782e-10)
(0.024125611 -7.031378e-10 2.1706566e-10)
(0.024125592 -1.3026697e-09 4.3205502e-10)
(0.019127089 -2.6653793e-09 6.0303122e-10)
(0.019127119 -1.8434553e-09 4.203252e-10)
(0.019127117 2.2242319e-09 1.5794822e-10)
(0.019127089 5.4199954e-10 3.7262429e-10)
(0.015123164 -6.8620657e-09 1.5546521e-10)
(0.015123202 -5.5189828e-09 3.218003e-10)
(0.0151232 6.1614691e-09 1.0266526e-10)
(0.015123166 4.0461255e-09 2.9005683e-10)
(0.013226878 -1.0713517e-08 -2.4488252e-11)
(0.013226908 -9.2055121e-09 2.5137949e-10)
(0.013226905 9.6647009e-09 7.0507364e-11)
(0.013226882 7.6331462e-09 2.3237271e-10)
(0.012717324 -1.1949273e-08 -6.2088274e-11)
(0.012717332 -1.0512473e-08 2.0357108e-10)
(0.012717328 1.0601046e-08 5.4459184e-11)
(0.012717328 8.859241e-09 1.934927e-10)
(0.012907618 -1.057583e-08 -5.018367e-11)
(0.01290761 -9.0748346e-09 1.6690008e-10)
(0.012907607 9.0305607e-09 4.5953205e-11)
(0.012907619 7.3803179e-09 1.6257987e-10)
(0.013458873 -8.3184265e-09 -3.1082053e-11)
(0.013458862 -6.5262735e-09 1.3556543e-10)
(0.013458859 6.6866684e-09 3.9915246e-11)
(0.013458873 4.8423498e-09 1.3438294e-10)
(0.014269008 -6.4069743e-09 -1.6730907e-11)
(0.014269001 -4.2068985e-09 1.0817339e-10)
(0.014268998 4.7761067e-09 3.4414033e-11)
(0.014269008 2.5800287e-09 1.0864346e-10)
(0.015334677 -5.1662409e-09 -7.8702278e-12)
(0.015334673 -2.5465477e-09 8.4687546e-11)
(0.015334671 3.5904761e-09 2.9108066e-11)
(0.015334676 1.0072637e-09 8.5980364e-11)
(0.016674178 -4.4034659e-09 -2.9117541e-12)
(0.016674176 -1.3866358e-09 6.4989178e-11)
(0.016674174 2.9099271e-09 2.4086701e-11)
(0.016674177 -5.1329782e-11 6.6562295e-11)
(0.018299657 -3.8065116e-09 -3.3661072e-13)
(0.018299657 -3.9683752e-10 4.9076967e-11)
(0.018299654 2.4049264e-09 1.9525167e-11)
(0.018299657 -9.3848377e-10 5.062649e-11)
(0.020213168 -3.143958e-09 8.6293928e-13)
(0.020213166 6.905665e-10 3.6535132e-11)
(0.020213163 1.8346384e-09 1.5539393e-11)
(0.020213168 -1.9279189e-09 3.7937227e-11)
(0.022410354 -2.3133694e-09 1.3419281e-12)
(0.02241035 2.0090656e-09 2.6861737e-11)
(0.022410347 1.0923304e-09 1.2165334e-11)
(0.022410354 -3.155815e-09 2.8061085e-11)
(0.024884817 -1.3180505e-09 1.4537753e-12)
(0.024884812 3.5727449e-09 1.9529088e-11)
(0.024884808 1.7957978e-10 9.3647311e-12)
(0.024884817 -4.6369547e-09 2.051489e-11)
(0.027631172 -2.2444181e-10 1.3570561e-12)
(0.027631166 5.3185201e-09 1.4048908e-11)
(0.027631162 -8.3733361e-10 7.087499e-12)
(0.027631172 -6.3078464e-09 1.4836242e-11)
(0.030646695 8.7562793e-10 1.1627596e-12)
(0.030646689 7.1468127e-09 1.0007402e-11)
(0.030646684 -1.8663546e-09 5.306155e-12)
(0.030646694 -8.0681356e-09 1.0622265e-11)
(0.03393193 1.8911091e-09 9.4311878e-13)
(0.033931925 8.9515005e-09 7.0621422e-12)
(0.033931919 -2.816262e-09 3.9380068e-12)
(0.033931929 -9.810922e-09 7.5333842e-12)
(0.037490645 2.7468597e-09 7.3716955e-13)
(0.037490642 1.0638467e-08 4.9389218e-12)
(0.037490636 -3.6115067e-09 2.892896e-12)
(0.037490645 -1.1441408e-08 5.2942827e-12)
(0.041329422 3.3903687e-09 5.6270621e-13)
(0.041329421 1.2134786e-08 3.4242965e-12)
(0.041329415 -4.1992088e-09 2.1082655e-12)
(0.041329422 -1.2886123e-08 3.6884932e-12)
(0.04545707 3.7925542e-09 4.2322391e-13)
(0.045457072 1.3391177e-08 2.3543751e-12)
(0.045457065 -4.549988e-09 1.5294367e-12)
(0.045457071 -1.4095341e-08 2.5482526e-12)
(0.049884015 3.9450003e-09 3.1653129e-13)
(0.04988402 1.4380137e-08 1.6051905e-12)
(0.049884012 -4.6551343e-09 1.1043219e-12)
(0.049884017 -1.504117e-08 1.7456881e-12)
(0.054621729 3.8555241e-09 2.3643703e-13)
(0.054621736 1.509176e-08 1.0849144e-12)
(0.054621728 -4.5221549e-09 7.9447796e-13)
(0.054621731 -1.5713349e-08 1.1853819e-12)
(0.059682234 3.5433962e-09 1.7669097e-13)
(0.059682244 1.5528791e-08 7.2674769e-13)
(0.059682236 -4.1699944e-09 5.6979048e-13)
(0.059682238 -1.6114272e-08 7.972883e-13)
(0.065077715 3.0350251e-09 1.323848e-13)
(0.065077727 1.5701906e-08 4.8201545e-13)
(0.065077719 -3.624716e-09 4.0754672e-13)
(0.06507772 -1.6254247e-08 5.3063422e-13)
(0.070820205 2.3605324e-09 9.9306828e-14)
(0.07082022 1.5625786e-08 3.1631004e-13)
(0.070820211 -2.9160826e-09 2.9083019e-13)
(0.070820211 -1.6147604e-08 3.4905056e-13)
(0.076921354 1.551314e-09 7.4669704e-14)
(0.076921371 1.5316247e-08 2.0485802e-13)
(0.076921362 -2.0751341e-09 2.0706191e-13)
(0.076921362 -1.5809798e-08 2.2661249e-13)
(0.083392254 6.3849752e-10 5.6010736e-14)
(0.083392274 1.4788394e-08 1.305099e-13)
(0.083392264 -1.1326515e-09 1.4698793e-13)
(0.083392263 -1.5255577e-08 1.4465287e-13)
(0.090243302 -3.4789157e-10 4.2078882e-14)
(0.090243323 1.4055663e-08 8.1386889e-14)
(0.090243312 -1.1833128e-10 1.0391286e-13)
(0.090243312 -1.4498057e-08 9.0176774e-14)
(0.097484091 -1.3792563e-09 3.1462948e-14)
(0.097484114 1.3129565e-08 4.9277823e-14)
(0.097484103 9.3950137e-10 7.3244889e-14)
(0.097484103 -1.3548471e-08 5.4520222e-14)
(0.10512332 -2.4284347e-09 2.3372581e-14)
(0.10512335 1.2019932e-08 2.8564251e-14)
(0.10512334 2.0139026e-09 5.1462729e-14)
(0.10512334 -1.2416421e-08 3.1421127e-14)
(0.11316873 -3.4695742e-09 1.724021e-14)
(0.11316875 1.0735487e-08 1.5420689e-14)
(0.11316874 3.0792056e-09 3.5990724e-14)
(0.11316874 -1.1110451e-08 1.6706743e-14)
(0.12162698 -4.4779877e-09 1.260748e-14)
(0.12162701 9.2845896e-09 7.2650885e-15)
(0.121627 4.1108623e-09 2.5031739e-14)
(0.121627 -9.6387855e-09 7.5579618e-15)
(0.13050362 -5.4300601e-09 9.1209764e-15)
(0.13050365 7.6760392e-09 2.3636336e-15)
(0.13050364 5.0853511e-09 1.7302622e-14)
(0.13050364 -8.0101351e-09 2.0554057e-15)
(0.13980301 -6.303275e-09 6.5141318e-15)
(0.13980304 5.9198631e-09 -4.4457805e-16)
(0.13980303 5.9802133e-09 1.1873636e-14)
(0.13980303 -6.2344747e-09 -1.0959654e-15)
(0.1495282 -7.0763838e-09 4.5814645e-15)
(0.14952823 4.028029e-09 -1.9259361e-15)
(0.14952822 6.774231e-09 8.0771728e-15)
(0.14952822 -4.3237482e-09 -2.7543104e-15)
(0.15968091 -7.7297198e-09 3.1577453e-15)
(0.15968094 2.0150512e-09 -2.5878395e-15)
(0.15968093 7.4477479e-09 5.4334225e-15)
(0.15968093 -2.2924654e-09 -3.4440065e-15)
(0.17026142 -8.2456472e-09 2.1230857e-15)
(0.17026146 -1.0152437e-10 -2.7605034e-15)
(0.17026145 7.9831256e-09 3.60425e-15)
(0.17026145 -1.581819e-10 -3.5819552e-15)
(0.18126855 -8.6091207e-09 1.3789539e-15)
(0.18126859 -2.3007577e-09 -2.6574215e-15)
(0.18126857 8.3653111e-09 2.3469128e-15)
(0.18126858 2.0581466e-09 -3.4087283e-15)
(0.19269953 -8.8083306e-09 8.5173575e-16)
(0.19269957 -4.5580649e-09 -2.412058e-15)
(0.19269955 8.5824891e-09 1.4845501e-15)
(0.19269957 4.3319234e-09 -3.0728934e-15)
(0.20455001 -8.8353994e-09 4.8482504e-16)
(0.20455005 -6.8450647e-09 -2.1041835e-15)
(0.20455004 8.6267805e-09 9.0003467e-16)
(0.20455005 6.6347616e-09 -2.6724262e-15)
(0.21681399 -8.6870842e-09 2.3443318e-16)
(0.21681402 -9.1294968e-09 -1.7815539e-15)
(0.21681401 8.49495e-09 5.076016e-16)
(0.21681402 8.9344056e-09 -2.2639346e-15)
(0.22948376 -8.3654472e-09 6.6676811e-17)
(0.2294838 -1.1375181e-08 -1.4737525e-15)
(0.22948378 8.1890788e-09 2.502592e-16)
(0.2294838 1.1194693e-08 -1.8798946e-15)
(0.24254994 -7.8784466e-09 -4.2055678e-17)
(0.24254997 -1.3541985e-08 -1.1952944e-15)
(0.24254996 7.7171569e-09 8.1498442e-17)
(0.24254997 1.3375525e-08 -1.5306457e-15)
(0.25600139 -7.2403972e-09 -1.080976e-16)
(0.25600143 -1.5585772e-08 -9.5341927e-16)
(0.25600141 7.0935427e-09 -2.608027e-17)
(0.25600143 1.543281e-08 -1.2242121e-15)
(0.2698253 -6.4722454e-09 -1.4078844e-16)
(0.26982534 -1.7458294e-08 -7.5296616e-16)
(0.26982532 6.3392356e-09 -8.7315624e-17)
(0.26982534 1.7318362e-08 -9.6470784e-16)
(0.28400712 -5.6015921e-09 -1.5354795e-16)
(0.28400715 -1.9107039e-08 -5.8439209e-16)
(0.28400714 5.4818943e-09 -1.1848753e-16)
(0.28400716 1.8979735e-08 -7.5195002e-16)
(0.29853064 -4.6623907e-09 -1.5410246e-16)
(0.29853068 -2.0475049e-08 -4.4578817e-16)
(0.29853066 4.5555258e-09 -1.3294245e-16)
(0.29853068 2.0360038e-08 -5.7612149e-16)
(0.31337803 -3.6942217e-09 -1.4387087e-16)
(0.31337806 -2.1500828e-08 -3.3234538e-16)
(0.31337804 3.5997492e-09 -1.3725358e-16)
(0.31337806 2.1397831e-08 -4.3808184e-16)
(0.32852986 -2.7410231e-09 -1.3095434e-16)
(0.32852989 -2.2118583e-08 -2.4330266e-16)
(0.32852987 2.6585105e-09 -1.3393088e-16)
(0.32852989 2.2027348e-08 -3.2470377e-16)
(0.34396521 -1.8491136e-09 -1.1121572e-16)
(0.34396524 -2.2259239e-08 -1.7075379e-16)
(0.34396521 1.7780882e-09 -1.2486029e-16)
(0.34396524 2.2179502e-08 -2.4279228e-16)
(0.35966174 -1.0643086e-09 -9.4632179e-17)
(0.35966176 -2.1853039e-08 -1.1112028e-16)
(0.35966174 1.0041901e-09 -1.1707009e-16)
(0.35966177 2.1784453e-08 -1.7885165e-16)
(0.37559577 -4.2790811e-10 -8.6345644e-17)
(0.37559579 -2.0835047e-08 -6.6906996e-17)
(0.37559577 3.7792654e-10 -1.041167e-16)
(0.37559579 2.0777103e-08 -1.3147464e-16)
(0.3917424 2.868707e-11 -7.917384e-17)
(0.39174241 -1.9155631e-08 -3.4852355e-17)
(0.39174239 -6.9558632e-11 -9.1176616e-17)
(0.39174242 1.9107576e-08 -9.9779254e-17)
(0.40807561 2.9078238e-10 -6.9541701e-17)
(0.40807562 -1.6797702e-08 -1.1686049e-17)
(0.4080756 -3.238683e-10 -8.5327041e-17)
(0.40807562 1.6758505e-08 -8.2038568e-17)
(0.42456843 3.6752735e-10 -5.8421815e-17)
(0.42456843 -1.3799053e-08 -4.2369478e-18)
(0.4245684 -3.9429003e-10 -7.4975853e-17)
(0.42456843 1.3767451e-08 -6.954883e-17)
(0.441193 2.9742394e-10 -4.8302908e-17)
(0.441193 -1.0276939e-08 -6.2716325e-18)
(0.44119297 -3.1923985e-10 -5.7214618e-17)
(0.441193 1.0251558e-08 -6.393294e-17)
(0.45792079 1.4960827e-10 -3.3927637e-17)
(0.45792079 -6.4848743e-09 -3.2735578e-18)
(0.45792077 -1.6708926e-10 -3.5572457e-17)
(0.45792079 6.4645185e-09 -5.8635607e-17)
(0.47472271 1.9137113e-11 -7.1422746e-18)
(0.47472271 -2.9731235e-09 5.9937278e-18)
(0.47472269 -3.2142371e-11 -6.7622857e-18)
(0.47472271 2.9583843e-09 -3.6261751e-17)
(0.49156927 -2.1493207e-11 2.9068467e-17)
(0.49156927 -7.20362e-10 2.0690222e-17)
(0.49156926 1.8244432e-11 2.573365e-17)
(0.49156927 7.1454098e-10 -7.2882035e-18)
)
;

boundaryField
{
    movingWall
    {
        type            fixedValue;
        value           uniform (0.5 0 0);
    }
    CPLReceiveMD
    {
        type            fixedValue;
        value           uniform (0.00050578508 0 0);
    }
    streamwiseIn
    {
        type            cyclic;
    }
    streamwiseOut
    {
        type            cyclic;
    }
    front
    {
        type            cyclic;
    }
    back
    {
        type            cyclic;
    }
    procBoundary1to0
    {
        type            processor;
        value           nonuniform List<vector> 
240
(
(0.021117481 1.0024716e-09 -1.3505828e-09)
(0.021117473 9.5613788e-10 -2.6863093e-10)
(0.021117472 -1.2481278e-09 -1.5982917e-10)
(0.021117478 -1.3124414e-09 -2.088264e-10)
(0.024125597 2.6260021e-10 -1.4159925e-09)
(0.024125611 3.3181538e-10 -4.9330782e-10)
(0.024125611 -7.0876347e-10 -2.1706566e-10)
(0.024125592 -1.272795e-09 -4.3205502e-10)
(0.019127089 -2.7882265e-09 -6.0303122e-10)
(0.019127119 -1.7836972e-09 -4.203252e-10)
(0.019127117 2.2491586e-09 -1.5794822e-10)
(0.019127089 6.0601335e-10 -3.7262429e-10)
(0.015123164 -6.9508395e-09 -1.5546521e-10)
(0.015123202 -5.4628807e-09 -3.218003e-10)
(0.0151232 6.2075484e-09 -1.0266526e-10)
(0.015123166 4.1316636e-09 -2.9005683e-10)
(0.013226878 -1.0763102e-08 2.4488252e-11)
(0.013226908 -9.1580767e-09 -2.5137949e-10)
(0.013226905 9.7212345e-09 -7.0507364e-11)
(0.013226882 7.7229461e-09 -2.3237271e-10)
(0.012717324 -1.1967526e-08 6.2088274e-11)
(0.012717332 -1.0475419e-08 -2.0357108e-10)
(0.012717328 1.0659694e-08 -5.4459184e-11)
(0.012717328 8.9405614e-09 -1.934927e-10)
(0.012907618 -1.0570212e-08 5.018367e-11)
(0.01290761 -9.047922e-09 -1.6690008e-10)
(0.012907607 9.0860416e-09 -4.5953205e-11)
(0.012907619 7.4468503e-09 -1.6257987e-10)
(0.013458873 -8.2997813e-09 3.1082053e-11)
(0.013458862 -6.50839e-09 -1.3556543e-10)
(0.013458859 6.7359678e-09 -3.9915246e-11)
(0.013458873 4.8922503e-09 -1.3438294e-10)
(0.014269008 -6.3840738e-09 1.6730907e-11)
(0.014269001 -4.1964984e-09 -1.0817339e-10)
(0.014268998 4.817923e-09 -3.4414033e-11)
(0.014269008 2.6144994e-09 -1.0864346e-10)
(0.015334677 -5.1435914e-09 7.8702278e-12)
(0.015334673 -2.5417583e-09 -8.4687546e-11)
(0.015334671 3.6247271e-09 -2.9108066e-11)
(0.015334676 1.029149e-09 -8.5980364e-11)
(0.016674178 -4.3830461e-09 2.9117541e-12)
(0.016674176 -1.3857618e-09 -6.4989178e-11)
(0.016674174 2.9371856e-09 -2.4086701e-11)
(0.016674177 -3.9016904e-11 -6.6562295e-11)
(0.018299657 -3.7889097e-09 3.3661073e-13)
(0.018299657 -3.9858697e-10 -4.9076967e-11)
(0.018299654 2.4261171e-09 -1.9525167e-11)
(0.018299657 -9.329972e-10 -5.062649e-11)
(0.020213168 -3.1291823e-09 -8.6293927e-13)
(0.020213166 6.8730306e-10 -3.6535132e-11)
(0.020213163 1.8508545e-09 -1.5539392e-11)
(0.020213168 -1.9269117e-09 -3.7937227e-11)
(0.022410354 -2.3012208e-09 -1.3419281e-12)
(0.02241035 2.0051132e-09 -2.6861737e-11)
(0.022410347 1.1046381e-09 -1.2165334e-11)
(0.022410354 -3.1574794e-09 -2.8061085e-11)
(0.024884817 -1.3082131e-09 -1.4537753e-12)
(0.024884812 3.5686693e-09 -1.9529088e-11)
(0.024884808 1.8886417e-10 -9.3647311e-12)
(0.024884817 -4.6400017e-09 -2.051489e-11)
(0.027631172 -2.166261e-10 -1.3570561e-12)
(0.027631166 5.3146694e-09 -1.4048908e-11)
(0.027631162 -8.3038793e-10 -7.087499e-12)
(0.027631172 -6.3114206e-09 -1.4836242e-11)
(0.030646695 8.8175707e-10 -1.1627596e-12)
(0.030646689 7.1433764e-09 -1.0007402e-11)
(0.030646684 -1.8611876e-09 -5.306155e-12)
(0.030646694 -8.0717081e-09 -1.0622265e-11)
(0.03393193 1.8958626e-09 -9.4311878e-13)
(0.033931925 8.9485587e-09 -7.0621422e-12)
(0.033931919 -2.8124211e-09 -3.9380068e-12)
(0.033931929 -9.8141971e-09 -7.5333842e-12)
(0.037490645 2.7505103e-09 -7.3716955e-13)
(0.037490642 1.0636028e-08 -4.9389218e-12)
(0.037490636 -3.6086628e-09 -2.892896e-12)
(0.037490645 -1.1444249e-08 -5.2942827e-12)
(0.041329422 3.3931495e-09 -5.6270621e-13)
(0.041329421 1.2132814e-08 -3.4242965e-12)
(0.041329415 -4.1971171e-09 -2.1082655e-12)
(0.041329422 -1.2888491e-08 -3.6884932e-12)
(0.04545707 3.7946579e-09 -4.2322391e-13)
(0.045457072 1.3389618e-08 -2.3543751e-12)
(0.045457065 -4.5484464e-09 -1.5294367e-12)
(0.045457071 -1.4097254e-08 -2.5482526e-12)
(0.049884015 3.9465818e-09 -3.1653129e-13)
(0.04988402 1.4378927e-08 -1.6051905e-12)
(0.049884012 -4.6539961e-09 -1.1043219e-12)
(0.049884017 -1.5042678e-08 -1.7456881e-12)
(0.054621729 3.8567058e-09 -2.3643703e-13)
(0.054621736 1.5090835e-08 -1.0849144e-12)
(0.054621728 -4.5213161e-09 -7.9447796e-13)
(0.054621731 -1.5714513e-08 -1.1853819e-12)
(0.059682234 3.5442738e-09 -1.7669097e-13)
(0.059682244 1.5528095e-08 -7.2674769e-13)
(0.059682236 -4.1693776e-09 -5.6979048e-13)
(0.059682238 -1.6115154e-08 -7.972883e-13)
(0.065077715 3.0356726e-09 -1.323848e-13)
(0.065077727 1.5701389e-08 -4.8201545e-13)
(0.065077719 -3.6242637e-09 -4.0754672e-13)
(0.06507772 -1.6254906e-08 -5.3063422e-13)
(0.070820205 2.3610063e-09 -9.9306827e-14)
(0.07082022 1.5625407e-08 -3.1631004e-13)
(0.070820211 -2.915752e-09 -2.9083019e-13)
(0.070820211 -1.614809e-08 -3.4905056e-13)
(0.076921354 1.551658e-09 -7.4669703e-14)
(0.076921371 1.5315972e-08 -2.0485802e-13)
(0.076921362 -2.0748938e-09 -2.0706191e-13)
(0.076921362 -1.5810151e-08 -2.2661249e-13)
(0.083392254 6.3874496e-10 -5.6010736e-14)
(0.083392274 1.4788197e-08 -1.305099e-13)
(0.083392264 -1.1324781e-09 -1.4698793e-13)
(0.083392263 -1.525583e-08 -1.4465287e-13)
(0.090243302 -3.4771554e-10 -4.2078882e-14)
(0.090243323 1.4055524e-08 -8.1386889e-14)
(0.090243312 -1.1820692e-10 -1.0391286e-13)
(0.090243312 -1.4498235e-08 -9.0176774e-14)
(0.097484091 -1.3791325e-09 -3.1462948e-14)
(0.097484114 1.3129468e-08 -4.9277823e-14)
(0.097484103 9.3959019e-10 -7.3244889e-14)
(0.097484103 -1.3548594e-08 -5.4520222e-14)
(0.10512332 -2.4283489e-09 -2.3372581e-14)
(0.10512335 1.2019864e-08 -2.8564251e-14)
(0.10512334 2.0139653e-09 -5.1462729e-14)
(0.10512334 -1.2416506e-08 -3.1421127e-14)
(0.11316873 -3.4695157e-09 -1.724021e-14)
(0.11316875 1.0735441e-08 -1.5420689e-14)
(0.11316874 3.0792492e-09 -3.5990724e-14)
(0.11316874 -1.1110508e-08 -1.6706743e-14)
(0.12162698 -4.4779487e-09 -1.260748e-14)
(0.12162701 9.2845585e-09 -7.2650885e-15)
(0.121627 4.1108921e-09 -2.5031739e-14)
(0.121627 -9.6388233e-09 -7.5579618e-15)
(0.13050362 -5.4300349e-09 -9.1209765e-15)
(0.13050365 7.6760186e-09 -2.3636337e-15)
(0.13050364 5.085371e-09 -1.7302622e-14)
(0.13050364 -8.0101595e-09 -2.0554057e-15)
(0.13980301 -6.3032593e-09 -6.5141319e-15)
(0.13980304 5.9198497e-09 4.44578e-16)
(0.13980303 5.9802262e-09 -1.1873636e-14)
(0.13980303 -6.2344899e-09 1.0959653e-15)
(0.1495282 -7.0763746e-09 -4.5814646e-15)
(0.14952823 4.0280204e-09 1.925936e-15)
(0.14952822 6.774239e-09 -8.0771729e-15)
(0.14952822 -4.3237574e-09 2.7543103e-15)
(0.15968091 -7.7297149e-09 -3.1577453e-15)
(0.15968094 2.0150459e-09 2.5878395e-15)
(0.15968093 7.4477527e-09 -5.4334225e-15)
(0.15968093 -2.2924707e-09 3.4440064e-15)
(0.17026142 -8.2456451e-09 -2.1230858e-15)
(0.17026146 -1.015275e-10 2.7605033e-15)
(0.17026145 7.983128e-09 -3.6042501e-15)
(0.17026145 -1.5818452e-10 3.5819551e-15)
(0.18126855 -8.6091203e-09 -1.3789539e-15)
(0.18126859 -2.3007595e-09 2.6574214e-15)
(0.18126857 8.3653121e-09 -2.3469129e-15)
(0.18126858 2.0581456e-09 3.4087282e-15)
(0.19269953 -8.8083312e-09 -8.5173581e-16)
(0.19269957 -4.5580658e-09 2.412058e-15)
(0.19269955 8.5824891e-09 -1.4845502e-15)
(0.19269957 4.3319234e-09 3.0728934e-15)
(0.20455001 -8.8354006e-09 -4.8482509e-16)
(0.20455005 -6.8450651e-09 2.1041834e-15)
(0.20455004 8.62678e-09 -9.0003473e-16)
(0.20455005 6.6347622e-09 2.6724261e-15)
(0.21681399 -8.6870856e-09 -2.3443323e-16)
(0.21681402 -9.1294968e-09 1.7815539e-15)
(0.21681401 8.4949492e-09 -5.0760165e-16)
(0.21681402 8.9344064e-09 2.2639346e-15)
(0.22948376 -8.3654486e-09 -6.6676856e-17)
(0.2294838 -1.1375181e-08 1.4737525e-15)
(0.22948378 8.1890779e-09 -2.5025924e-16)
(0.2294838 1.1194694e-08 1.8798946e-15)
(0.24254994 -7.8784478e-09 4.2055638e-17)
(0.24254997 -1.3541985e-08 1.1952943e-15)
(0.24254996 7.7171559e-09 -8.1498479e-17)
(0.24254997 1.3375526e-08 1.5306457e-15)
(0.25600139 -7.2403984e-09 1.0809757e-16)
(0.25600143 -1.5585771e-08 9.5341924e-16)
(0.25600141 7.0935418e-09 2.6080235e-17)
(0.25600143 1.5432811e-08 1.2242121e-15)
(0.2698253 -6.4722464e-09 1.4078841e-16)
(0.26982534 -1.7458294e-08 7.5296613e-16)
(0.26982532 6.3392348e-09 8.7315594e-17)
(0.26982534 1.7318363e-08 9.647078e-16)
(0.28400712 -5.601593e-09 1.5354792e-16)
(0.28400715 -1.9107039e-08 5.8439207e-16)
(0.28400714 5.4818936e-09 1.184875e-16)
(0.28400716 1.8979736e-08 7.5194998e-16)
(0.29853064 -4.6623915e-09 1.5410243e-16)
(0.29853068 -2.0475049e-08 4.4578814e-16)
(0.29853066 4.5555252e-09 1.3294243e-16)
(0.29853068 2.0360038e-08 5.7612146e-16)
(0.31337803 -3.6942223e-09 1.4387085e-16)
(0.31337806 -2.1500828e-08 3.3234536e-16)
(0.31337804 3.5997487e-09 1.3725356e-16)
(0.31337806 2.1397831e-08 4.3808181e-16)