LAMMPS (11 Aug 2017)
# LAMMPS

### OPTION VARIABLES ###

variable runtime string "24:00:30"
variable rnd_seed equal 68093
variable DEBUG equal 0


#@ General options
variable units string "lj"
variable npx equal 4
variable npy equal 1
variable npz equal 4

variable cpl_dy equal 10
variable sig equal 1.0
variable wall_ncx equal 20
variable wall_ncz equal 20
variable wall_ncy equal 3
variable wall_den equal 1.0
variable wall_latt_param equal (4/v_wall_den)^(1/3.0)  # For an FCC->N=4
variable Ly equal 6.0*${cpl_dy}
variable Ly equal 6.0*10
variable Lx equal v_wall_ncx*${wall_latt_param}
variable Lx equal v_wall_ncx*1.5874010519682
variable Lz equal v_wall_ncz*${wall_latt_param}
variable Lz equal v_wall_ncz*1.5874010519682

#@ Equilibration
# TODO:MOdified when restarted
variable equilibration_mode string "manual" 		#manual|automatic|restart
variable T0_eq equal 1.1
variable thermo_type_eq string "langevin" 			#nose-hoover|langevin
variable barostat_mode_eq string "none" 		#pressure | none
variable barostat_value_eq equal 3
variable timestep_eq equal 0.005
variable steps_eq equal 200000
# TODO:MOdified when restarted
variable restart_step_eq equal 0
variable dump_trajectories_eq string "no"

#@ Nemd
variable nemd_mode string "manual"
variable T0_nemd equal 1.1
variable thermo_type_nemd string "langevin" 		#nose-hoover|langevin
variable thermo_region_nemd string "wall"
variable thermo_region_percent_nemd equal 30
variable barostat_type_nemd string "none"   #pressure|volume-fixed
variable timestep_nemd equal 0.005
variable restart_step_nemd equal 0
variable dump_trajectories_nemd string "no"
variable binning_mode string "B1D"
variable wall_velocity_mode string "velocity_feedback"
variable wall_velocity_value equal 0.0

# Processor decomposition
processors ${npx} ${npy} ${npz}
processors 4 ${npy} ${npz}
processors 4 1 ${npz}
processors 4 1 4
units		${units}
units		lj
atom_style	atomic
boundary p f p

if "${restart_step_eq} > 0" then 	"read_restart restart.equi.*"

# Simulation time available
timer timeout ${runtime} every 10
timer timeout 24:00:30 every 10
New timer settings: style=normal  mode=nosync  timeout=00:00:30

region	boxregion block 0 ${Lx} 0 ${Ly} 0 ${Lz} units box
region	boxregion block 0 31.748021039364 0 ${Ly} 0 ${Lz} units box
region	boxregion block 0 31.748021039364 0 60 0 ${Lz} units box
region	boxregion block 0 31.748021039364 0 60 0 31.748021039364 units box
if "${equilibration_mode} != restart" then 	"create_box 2 boxregion"
create_box 2 boxregion
Created orthogonal box = (0 0 0) to (31.748 60 31.748)
  4 by 1 by 4 MPI processor grid

# Wall definition (in lattice units)
variable    wall_area equal lx*lz
variable    wallbot equal 2*${sig} # Gap of 2x particle size
variable    wallbot equal 2*1 
variable    walltop equal v_wallbot+v_wall_ncy*${wall_latt_param}
variable    walltop equal v_wallbot+v_wall_ncy*1.5874010519682
lattice fcc ${wall_den}
lattice fcc 1
Lattice spacing in x,y,z = 1.5874 1.5874 1.5874
region wallregion block 0.0 EDGE ${wallbot} ${walltop} 0.0 EDGE units box
region wallregion block 0.0 EDGE 2 ${walltop} 0.0 EDGE units box
region wallregion block 0.0 EDGE 2 6.7622031559046 0.0 EDGE units box
if "${equilibration_mode} != restart" then 	"create_atoms 2 region wallregion units box"
create_atoms 2 region wallregion units box
Created 4800 atoms
group wallgroup region wallregion
4800 atoms in group wallgroup

# Fluid definition (in box units)
variable density equal 0.81
variable fluid_gap equal ${sig}
variable fluid_gap equal 1
variable fluidbot equal bound(wallgroup,ymax)+${fluid_gap}
variable fluidbot equal bound(wallgroup,ymax)+1
variable fluidtop equal ly-${fluid_gap}
variable fluidtop equal ly-1
region fluidregion block 0.0 EDGE ${fluidbot} ${fluidtop} 0.0 EDGE units box
region fluidregion block 0.0 EDGE 7.3496042078728 ${fluidtop} 0.0 EDGE units box
region fluidregion block 0.0 EDGE 7.3496042078728 59 0.0 EDGE units box
variable no_fluid_atoms equal round(${density}*${wall_area}*(${fluidtop}-${fluidbot}+$(v_fluid_gap)))
variable no_fluid_atoms equal round(0.81*${wall_area}*(${fluidtop}-${fluidbot}+$(v_fluid_gap)))
variable no_fluid_atoms equal round(0.81*1007.9368399159*(${fluidtop}-${fluidbot}+$(v_fluid_gap)))
variable no_fluid_atoms equal round(0.81*1007.9368399159*(59-${fluidbot}+$(v_fluid_gap)))
variable no_fluid_atoms equal round(0.81*1007.9368399159*(59-7.3496042078728+$(v_fluid_gap)))
variable no_fluid_atoms equal round(0.81*1007.9368399159*(59-7.3496042078728+1))

# Create atoms
if "${equilibration_mode} != restart" then 	"create_atoms 1 random ${no_fluid_atoms} ${rnd_seed} fluidregion units box"
create_atoms 1 random ${no_fluid_atoms} ${rnd_seed} fluidregion units box
create_atoms 1 random 42985 ${rnd_seed} fluidregion units box
create_atoms 1 random 42985 68093 fluidregion units box
Created 42985 atoms
group fluidgroup region fluidregion
42985 atoms in group fluidgroup

# Thermostat location
variable thermo_bot equal ${wallbot}
variable thermo_bot equal 2
if "${thermo_region_nemd} == wall" then 	"variable thermo_ncy equal 2" 	"variable thermo_top equal ${wallbot}+${thermo_ncy}*${wall_latt_param}" else 	"variable thermo_top equal ${yy}"
variable thermo_ncy equal 2
variable thermo_top equal ${wallbot}+${thermo_ncy}*${wall_latt_param}
variable thermo_top equal 2+${thermo_ncy}*${wall_latt_param}
variable thermo_top equal 2+2*${wall_latt_param}
variable thermo_top equal 2+2*1.5874010519682
region thermoregion block 0.0 EDGE ${thermo_bot} ${thermo_top} 0.0 EDGE units box
region thermoregion block 0.0 EDGE 2 ${thermo_top} 0.0 EDGE units box
region thermoregion block 0.0 EDGE 2 5.1748021039364 0.0 EDGE units box

# Barostat location
variable 	barostat_ncy equal 1
variable    barostat_bot equal ${wallbot}
variable    barostat_bot equal 2
variable 	barostat_top equal ${barostat_bot}+${barostat_ncy}*${wall_latt_param}
variable 	barostat_top equal 2+${barostat_ncy}*${wall_latt_param}
variable 	barostat_top equal 2+1*${wall_latt_param}
variable 	barostat_top equal 2+1*1.5874010519682
region barostatregion block 0.0 EDGE ${barostat_bot} ${barostat_top} 0.0 EDGE units box
region barostatregion block 0.0 EDGE 2 ${barostat_top} 0.0 EDGE units box
region barostatregion block 0.0 EDGE 2 3.5874010519682 0.0 EDGE units box

# Create groups
group thermogroup region thermoregion
3200 atoms in group thermogroup
group barostatgroup region barostatregion
1600 atoms in group barostatgroup
group no_thermo_group subtract all thermogroup
44585 atoms in group no_thermo_group



# Reflecting wall at the top and bottom
fix uplowpecular all wall/reflect ylo EDGE yhi EDGE

# Masses
if "${equilibration_mode} != restart" then 	"mass 1 1.0" 	"mass 2 1.0"
mass 1 1.0
mass 2 1.0

# Interactions
if "${equilibration_mode} != restart" then 	"pair_style	lj/cut 2.2" 	"pair_coeff	1 1 1.0 ${sig} $(2.2+v_sig-1.0)" 	"pair_coeff	2 2 4.0 1.0 2.2"
pair_style	lj/cut 2.2
pair_coeff	1 1 1.0 ${sig} $(2.2+v_sig-1.0)
pair_coeff	1 1 1.0 1 $(2.2+v_sig-1.0)
pair_coeff	1 1 1.0 1 2.2000000000000001776
pair_coeff	2 2 4.0 1.0 2.2


# Neighbor lists
neighbor 0.3 bin
neigh_modify delay 0 every 1 check yes

dump d0 all image 1 dump*_all.ppm type type up 0 1 0 zoom 2.0 box no 0.02
dump d1 thermogroup image 1 dump*_thermo.ppm type type up 0 1 0 zoom 2.0
dump d2 thermogroup image 1 dump*_barostat.ppm type type up 0 1 0 zoom 2.0
dump_modify d1 acolor 2 coral
dump_modify d2 acolor 2 green
# dump_modify d1
undump d1
undump d2

# Minimization
if "${equilibration_mode} != restart" then 	"minimize 1.0e-4 1.0e-6 100000 1000000" 	"write_restart restart.minimiz.*.mpiio" 	"reset_timestep ${restart_step_eq}"
minimize 1.0e-4 1.0e-6 100000 1000000
Per MPI rank memory allocation (min/avg/max) = 4.468 | 4.476 | 4.487 Mbytes
Step Temp E_pair E_mol TotEng Press 
       0            0 1.1039784e+15            0 1.1039784e+15 3.489214e+15 
     384            0   -8.8486803            0   -8.8486803   -1.3660777 
Loop time of 2.74807 on 16 procs for 384 steps with 47785 atoms

99.3% CPU use with 16 MPI tasks x no OpenMP threads

Minimization stats:
  Stopping criterion = energy tolerance
  Energy initial, next-to-last, final = 
     1.10397843263e+15     -8.84791570438     -8.84868031583
  Force two-norm initial, final = 2.47577e+22 210.887
  Force max component initial, final = 1.46471e+22 9.96918
  Final line search alpha, max atom move = 0.0031336 0.0312394
  Iterations, force evaluations = 384 655

MPI task timing breakdown:
Section |  min time  |  avg time  |  max time  |%varavg| %total
---------------------------------------------------------------
Pair    | 1.2627     | 1.4476     | 1.664      |   9.5 | 52.68
Neigh   | 0.57642    | 0.6326     | 0.70746    |   4.4 | 23.02
Comm    | 0.24979    | 0.49896    | 0.68613    |  21.3 | 18.16
Output  | 0          | 0          | 0          |   0.0 |  0.00
Modify  | 0          | 0          | 0          |   0.0 |  0.00
Other   |            | 0.1689     |            |       |  6.15

Nlocal:    2986.56 ave 3145 max 2855 min
Histogram: 2 1 1 2 2 3 4 0 0 1
Nghost:    5043.06 ave 5158 max 4900 min
Histogram: 1 1 0 3 2 0 3 3 2 1
Neighs:    84586.2 ave 90937 max 78590 min
Histogram: 1 1 1 0 5 4 2 1 0 1

Total # of neighbors = 1353380
Ave neighs/atom = 28.3223
Neighbor list builds = 147
Dangerous builds = 1
write_restart restart.minimiz.*.mpiio
reset_timestep ${restart_step_eq}
reset_timestep 0

# Initial conditions
velocity all create ${T0_eq} ${rnd_seed} loop geom
velocity all create 1.1 ${rnd_seed} loop geom
velocity all create 1.1 68093 loop geom
variable no_barostat_atoms equal count(barostatgroup)
variable top_wall_ycoord equal bound(wallgroup,ymax)
variable control_slab_centre equal (ly-2*${fluid_gap})/2.0+v_top_wall_ycoord+2*${fluid_gap}
variable control_slab_centre equal (ly-2*1)/2.0+v_top_wall_ycoord+2*${fluid_gap}
variable control_slab_centre equal (ly-2*1)/2.0+v_top_wall_ycoord+2*1
variable control_slab_width equal 10
variable control_slab_ybot equal v_control_slab_centre-${control_slab_width}/2.0
variable control_slab_ybot equal v_control_slab_centre-10/2.0
variable control_slab_ytop equal v_control_slab_centre+${control_slab_width}/2.0
variable control_slab_ytop equal v_control_slab_centre+10/2.0
variable control_slab_vol equal ${control_slab_width}*lx*lz
variable control_slab_vol equal 10*lx*lz
region controlslabregion block 0.0 EDGE ${control_slab_ybot} ${control_slab_ytop}  0.0 EDGE units box
region controlslabregion block 0.0 EDGE 33.9501730700903 ${control_slab_ytop}  0.0 EDGE units box
region controlslabregion block 0.0 EDGE 33.9501730700903 43.9501730700903  0.0 EDGE units box
group controlslabgroup dynamic fluidgroup region controlslabregion
dynamic group controlslabgroup defined
variable control_slab_density equal mass(controlslabgroup)/${control_slab_vol}
variable control_slab_density equal mass(controlslabgroup)/10079.368399159
variable fluid_width equal ly-v_top_wall_ycoord
variable fluid_vol equal (ly-v_top_wall_ycoord)*${wall_area}
variable fluid_vol equal (ly-v_top_wall_ycoord)*1007.9368399159

# Temperature computations
compute system_temp all temp/com
compute fluid_temp fluidgroup temp/com
compute wall_temp wallgroup temp/com

# Compute pressure/stress

# Control slab
compute stress controlslabgroup stress/atom fluid_temp
compute stress_sum controlslabgroup reduce sum c_stress[1] c_stress[2] c_stress[3]
variable control_slab_press equal -(c_stress_sum[1]+c_stress_sum[2]+c_stress_sum[3])/(3*v_control_slab_vol)

#Fluid slab
compute stress_2 fluidgroup stress/atom fluid_temp
variable kk atom (c_stress_2[1]+c_stress_2[2]+c_stress_2[3])/(3*${sig}*v_wall_area)
variable kk atom (c_stress_2[1]+c_stress_2[2]+c_stress_2[3])/(3*1*v_wall_area)
compute stress_sum_2 fluidgroup reduce sum c_stress_2[1] c_stress_2[2] c_stress_2[3]
variable fluid_press equal -(c_stress_sum_2[1]+c_stress_sum_2[2]+c_stress_sum_2[3])/(3*v_fluid_vol)


# Barostating during equilibration
if "${barostat_mode_eq} == pressure" then 	"variable force_barostat_eq equal -0.5*vcm(wallgroup,y)+v_barostat_value_eq*${wall_area}/${no_barostat_atoms}"     "fix barostat_fix barostatgroup addforce 0.0 v_force_barostat_eq 0.0 every 1" elif "${barostat_mode_eq} == none" 	"fix barostat_fix wallgroup spring/self 100.0 xyz" else 	"print 'Error'" 	"quit 1"
fix barostat_fix wallgroup spring/self 100.0 xyz

# Thermostating during equilibration
if "${thermo_type_eq} == nose_hoover" then 	"fix thermostat_fix all nvt temp ${T0_eq} ${T0_eq} 100.0" elif "${thermo_type_eq} == langevin" 	"fix thermostat_fix all langevin ${T0_eq} ${T0_eq} 100.0 ${rnd_seed}" 	"fix nve_fix all nve" else 	"print 'Error'" 	"quit 1"
fix thermostat_fix all langevin ${T0_eq} ${T0_eq} 100.0 ${rnd_seed}
fix thermostat_fix all langevin 1.1 ${T0_eq} 100.0 ${rnd_seed}
fix thermostat_fix all langevin 1.1 1.1 100.0 ${rnd_seed}
fix thermostat_fix all langevin 1.1 1.1 100.0 68093
fix nve_fix all nve

# Fields computations
compute fieldcompute_eq fluidgroup chunk/atom bin/3d x lower $(lx) y lower $(2*v_sig) z lower $(lz) units box
compute fieldcompute_eq fluidgroup chunk/atom bin/3d x lower 31.748021039364001439 y lower $(2*v_sig) z lower $(lz) units box
compute fieldcompute_eq fluidgroup chunk/atom bin/3d x lower 31.748021039364001439 y lower 2 z lower $(lz) units box
compute fieldcompute_eq fluidgroup chunk/atom bin/3d x lower 31.748021039364001439 y lower 2 z lower 31.748021039364001439 units box
# compute fieldcompute_eq fluidgroup chunk/atom bin/1d y lower ${sig}  units box
fix fieldfix_eq fluidgroup ave/chunk 10 2000 20000 fieldcompute_eq density/mass norm none file lammps/fields_eq

variable ctrl_slab_no_particles equal count(controlslabgroup)

# Data dumping
thermo 100
thermo_style custom step v_ctrl_slab_no_particles v_fluid_width v_control_slab_density c_system_temp v_control_slab_press v_fluid_press #pe ke evdwl ecoul etotal
if "${dump_trajectories_eq} == yes" then 	"dump dump_eq all xyz 2000 lammps/traj_eq.xyz"
timestep ${timestep_eq}
timestep 0.005

fix cplfix all cpl/init
variable CPLSTEPS equal 1000000
fix cplfixconstrain all cpl/constrain
region cplforceregion block 3.9364e-08 31.748 55 60 3.9364e-08 31.748 units box
group cplforcegroup dynamic all region cplforceregion every 1
dynamic group cplforcegroup defined
fix cplforcefix cplforcegroup cpl/force region cplforceregion

print "# -- [EQUILIBRATION] RUN -- #"
# -- [EQUILIBRATION] RUN -- #
variable remaining_steps_eq equal ${steps_eq}-${restart_step_eq}
variable remaining_steps_eq equal 200000-${restart_step_eq}
variable remaining_steps_eq equal 200000-0
run ${remaining_steps_eq}
run 200000
Per MPI rank memory allocation (min/avg/max) = 4.722 | 4.728 | 4.738 Mbytes
Step v_ctrl_slab_no_particles v_fluid_width v_control_slab_density c_system_temp v_control_slab_press v_fluid_press 
       0         8395    52.049827   0.83288949          1.1  -0.47496748  -0.30152824 
     100         8375    51.972834   0.83090524   0.56420458    1.2328995    1.5529616 
     200         8400    51.980984   0.83338555   0.55113426   0.64669421   0.82263424 
     300         8508    51.978277   0.84410051   0.53986602    0.5777143   0.43114012 
     400         8550    51.949671   0.84826744   0.53566067   0.38850266   0.19421892 
     500         8502    51.985805   0.84350523   0.52825542   0.17652738  0.099738557 
     600         8442    51.965203   0.83755248   0.52827907  0.047374529   0.02794652 
     700         8392    51.973801   0.83259185   0.52774983  -0.19041742 0.0098173044 
     800         8338    51.963454   0.82723437   0.52929042  -0.29191569  0.009121156 
     900         8325    51.973209   0.82594461   0.53257065  -0.28572851  0.026271063 
    1000         8310    51.951933   0.82445642   0.53668653  -0.24079745  0.044573807 
    1100         8320    51.974852   0.82544855   0.54212516  -0.20268232  0.046970558 
    1200         8354    51.959408   0.82882177    0.5410618 -0.080088495  0.071432496 
    1300         8386     51.96942   0.83199658   0.54360768  0.043648023  0.084214209 
    1400         8406    51.974258   0.83398083   0.54420478   0.11764865  0.086187007 
    1500         8415    51.962605   0.83487374   0.54735162   0.15653611  0.055051376 
    1600         8442    51.961055   0.83755248   0.54503107   0.20092528   0.05704525 
    1700         8452    51.991405   0.83854461   0.54523773   0.21189696  0.026222256 
    1800         8412    51.938145    0.8345761   0.55027828   0.16540601 -0.018810813 
    1900         8399    51.967102   0.83328634   0.55048528   0.15484929 -0.024674885 
    2000         8360    51.983018   0.82941705   0.54747261   0.12776373 -0.041669933 
    2100         8353    51.974752   0.82872256   0.54708111  0.052126028 -0.049154073 
    2200         8310    51.945716   0.82445642   0.55115451 -0.004915795 -0.055421583 
    2300         8287    51.981205   0.82217453   0.55334413  -0.07196923 -0.063741618 
    2400         8263    51.965015   0.81979343   0.55213519 -0.049741897 -0.067126712 
    2500         8286    51.961329   0.82207532   0.55478181 -0.0086045231  -0.08166835 
    2600         8283    51.969988   0.82177768   0.55739432 -0.038566703  -0.06126727 
    2700         8255    51.989569   0.81899973   0.55954364  -0.11156702 -0.067658537 
    2800         8249    51.949199   0.81840445   0.55987335 -0.087551955  -0.05151361 
    2900         8205    51.954411    0.8140391   0.56008337   -0.1952443 -0.045597913 
    3000         8189    51.956355    0.8124517   0.56392916   -0.1858074 -0.044741716 
    3100         8186    51.970721   0.81215406   0.56428181  -0.21966002 -0.058355274 
    3200         8189    51.959082    0.8124517   0.56578735  -0.18824526 -0.064684526 
    3300         8176    51.959137   0.81116194   0.56848966  -0.19304765 -0.060720958 
    3400         8167    51.957479   0.81026902   0.56834017  -0.14624721 -0.037147465 
    3500         8183    51.957725   0.81185643   0.57158168  -0.12284881 -0.029696949 
    3600         8199    51.960772   0.81344383   0.57390083 -0.051540186  -0.02503807 
    3700         8233    51.966249   0.81681705   0.57851976 -0.061997534 -0.013381694 
    3800         8191    51.949995   0.81265013   0.58020609  0.023336463  0.027501191 
    3900         8221    51.972001    0.8156265   0.58515202  0.071441496   0.06070479 
    4000         8259     51.96898   0.81939658   0.58948811   0.10380576  0.058768823 
    4100         8283    51.956837   0.82177768   0.59236598   0.14063259  0.095908223 
    4200         8284     51.95978   0.82187689   0.59274466   0.25289499   0.15443948 
    4300         8316    51.975358    0.8250517   0.59434737   0.30657981   0.17349592 
    4400         8302    51.936205   0.82366272   0.60192063   0.27754426   0.16897926 
    4500         8295    51.975087   0.82296823    0.6036536   0.32795778    0.2079134 
    4600         8273    51.975602   0.82078556   0.60434709   0.29424394    0.2257597 
    4700         8266    51.956932   0.82009107   0.61060216   0.24143213   0.21674041 
    4800         8258    51.949624   0.81929737   0.61010943   0.27305517   0.23734585 
    4900         8228    51.946143   0.81632099   0.61428338   0.22890492   0.24292659 
    5000         8237    51.950563    0.8172139   0.61588787   0.27530409   0.26729125 
    5100         8229     51.97577    0.8164202   0.61938107   0.17083972   0.26579823 
    5200         8218     51.97089   0.81532887   0.62522976   0.20109435   0.27531385 
    5300         8218     51.95753   0.81532887   0.62283177   0.25627821   0.33085626 
    5400         8197    51.965469    0.8132454    0.6281672   0.23704838    0.3331856 
    5500         8213    51.985163    0.8148328   0.63130071   0.21592243   0.33630376 
    5600         8211    51.986954   0.81463438   0.63016386   0.21361363   0.38940986 
    5700         8221     51.95132    0.8156265   0.63664954   0.18259072    0.3732858 
    5800         8269    51.933021   0.82038871   0.63773285   0.34932713   0.42193281 
    5900         8283    51.936994   0.82177768   0.63928846   0.39206599   0.42651739 
    6000         8281    51.960549   0.82157926   0.64230836   0.39965386   0.45265685 
    6100         8277    51.954337   0.82118241   0.64746153   0.46418297   0.45628955 
    6200         8284    51.913635   0.82187689   0.64546749   0.52549475   0.48181046 
    6300         8284    51.952685   0.82187689   0.65022694   0.57368701    0.4974839 
    6400         8284    51.946493   0.82187689    0.6527496    0.5286511   0.50317446 
    6500         8289    51.965232   0.82237296     0.658682    0.4968674   0.50966344 
    6600         8292    51.962002    0.8226706   0.65813607   0.48629028   0.53402824 
    6700         8290    51.962974   0.82247217   0.66165286   0.52777164   0.53499243 
    6800         8287    51.975727   0.82217453   0.66148891   0.55884761   0.55035791 
    6900         8283    51.968023   0.82177768   0.66351666   0.54137359   0.56146941 
    7000         8291    51.920932   0.82257138    0.6676325   0.59716782   0.55362103 
    7100         8280    51.953463   0.82148004   0.66612792    0.5862591   0.56902559 
    7200         8279    51.956318   0.82138083   0.66749347      0.57408   0.57984912 
    7300         8276    51.959488   0.82108319   0.66919925   0.59893499     0.599339 
    7400         8280    51.952853   0.82148004   0.67193645   0.55220403   0.59649705 
    7500         8257    51.964236   0.81919816   0.67675564   0.52848019    0.5901623 
    7600         8231    51.986565   0.81661863   0.67744087   0.57824426   0.60934341 
    7700         8241    51.947279   0.81761075   0.68029918   0.53354296   0.60631988 
    7800         8224    51.969285   0.81592414   0.68248042   0.53893591   0.62064698 
    7900         8237     51.97406    0.8172139   0.68337821   0.58127417   0.67126351 
    8000         8245     51.95503    0.8180076   0.68656215   0.59839955   0.67144713 
    8100         8244    51.961415   0.81790839   0.68943398   0.65284826   0.66306365 
    8200         8273    51.958619   0.82078556   0.69064753   0.68358463   0.69502685 
    8300         8290    51.952829   0.82247217   0.69282193   0.73009783   0.69786138 
    8400         8259    51.961886   0.81939658    0.6936165   0.77577627    0.7198298 
    8500         8248    51.978381   0.81830524   0.69835914   0.73798361   0.71627459 
    8600         8263    51.959272   0.81979343   0.69849089   0.79096665   0.74347206 
    8700         8280    51.975176   0.82148004   0.70243068   0.80951696    0.7539835 
    8800         8288    51.963417   0.82227374   0.70480866   0.78056308   0.76172934 
    8900         8278    51.952226   0.82128162   0.70355234    0.9040671   0.81530789 
    9000         8289     51.96982   0.82237296   0.70754893   0.90861856   0.78771434 
    9100         8293    51.951883   0.82276981   0.71031509     0.803891   0.80321548 
    9200         8291    51.961892   0.82257138   0.70795085   0.90570988   0.83495401 
    9300         8256    51.969286   0.81909894     0.714757   0.85885585   0.82302688 
    9400         8279    51.979147   0.82138083   0.71418171    0.8440214   0.84524668 
    9500         8283    51.972203   0.82177768    0.7153142   0.89776191   0.85357838 
    9600         8244    51.956755   0.81790839   0.71945258   0.87361053   0.85814307 
    9700         8248    51.961871   0.81830524   0.72221315    0.7886682   0.88813677 
    9800         8243    51.928339   0.81780918   0.72670312   0.79322127    0.8530387 
    9900         8252    51.961093   0.81870209   0.72597921   0.90799174   0.91201169 
   10000         8233    51.962457   0.81681705   0.72790242   0.82365144   0.92339032 
   10100         8240    51.988944   0.81751154    0.7317085    0.8501932   0.93370294 
   10200         8236    51.969909   0.81711469   0.73070543   0.88136436   0.96541416 
   10300         8242     51.97057   0.81770997    0.7356376   0.88913675   0.96537312 
   10400         8258    51.932943   0.81929737   0.73741387   0.91395897   0.97692473 
   10500         8240    51.936936   0.81751154   0.73870374   0.95158205   0.98133833 
   10600         8238    51.978422   0.81731312   0.74255604   0.92273274   0.98327489 
   10700         8272    51.979306   0.82068634   0.74222752    1.0833433    1.0162872 
   10800         8263    51.974507   0.81979343   0.74437558     1.037108    1.0361593 
   10900         8274    51.952341   0.82088477   0.74749483    1.0179348    1.0229546 
   11000         8258    51.959559   0.81929737   0.74960636    1.0397533    1.0404644 
   11100         8289    51.948518   0.82237296   0.75257231    1.0242423    1.0467859 
   11200         8274    51.970079   0.82088477   0.75445834    1.1061055    1.0742102 
   11300         8268    51.924078   0.82028949   0.75268829    1.1782159    1.1068676 
   11400         8263    51.912392   0.81979343    0.7572927     1.088466    1.0682492 
   11500         8273     51.94724   0.82078556   0.75844198    1.0711115    1.0927864 
   11600         8273    51.983037   0.82078556   0.76145591    1.0617523     1.111399 
   11700         8243    51.954185   0.81780918    0.7654471    1.0989219    1.0955598 
   11800         8260    51.941812   0.81949579   0.76929167    1.1000667    1.1046836 
   11900         8280    51.963497   0.82148004    0.7645496    1.1547534    1.1386326 
   12000         8257    51.948132   0.81919816   0.76725369    1.1618797    1.1325138 
   12100         8233    51.946436   0.81681705   0.76808649    1.0986505    1.1522139 
   12200         8206    51.948662   0.81413831   0.77165197    1.0966737    1.1543338 
   12300         8231    51.949391   0.81661863   0.77129409    1.1058979    1.1687203 
   12400         8243    51.978277   0.81780918   0.77251485    1.1208715     1.196759 
   12500         8241     51.92058   0.81761075   0.77657934    1.1567448    1.1892416 
   12600         8276    51.952172   0.82108319   0.77745463    1.2576787    1.2100104 
   12700         8283    51.962315   0.82177768   0.78020355    1.2545517    1.1959899 
   12800         8288    51.959661   0.82227374   0.78197869    1.2649832    1.2252084 
   12900         8263    51.938407   0.81979343   0.78190008    1.3361851    1.2558041 
   13000         8278    51.970244   0.82128162   0.78758945    1.2485887    1.2096658 
   13100         8277    51.969349   0.82118241     0.787246    1.3309982    1.2434258 
   13200         8263     51.94589   0.81979343    0.7918085    1.2878906    1.2501129 
   13300         8285    51.941273   0.82197611   0.78985597    1.3790498     1.308574 
   13400         8265    51.951251   0.81999186   0.79296559    1.3302086    1.3130933 
   13500         8255    51.948007   0.81899973   0.79469911    1.3805022    1.3013799 
   13600         8242    51.944382   0.81770997   0.79471992     1.222363    1.3290424 
   13700         8230    51.988323   0.81651942   0.80278118    1.2312549    1.3055397 
   13800         8246     51.94438   0.81810682    0.8022181    1.3079076    1.3393502 
   13900         8253     51.96945   0.81880131   0.80619912    1.3173542    1.3177387 
   14000         8237    51.942757    0.8172139   0.80593422    1.3516552    1.3434124 
   14100         8241    51.938313   0.81761075   0.80646619    1.3756398    1.3662383 
   14200         8230    51.952401   0.81651942   0.80641202    1.3335875    1.3909013 
   14300         8217    51.961336   0.81522965   0.81112083    1.3960826     1.382402 
   14400         8233    51.967295   0.81681705   0.81087877    1.3667437    1.3930706 
   14500         8212    51.965373   0.81473359   0.81323068    1.3187338    1.3795784 
   14600         8214     51.90577   0.81493202   0.81610766    1.4082577    1.3909025 
   14700         8228    51.933989   0.81632099   0.81989859    1.3935784    1.3924213 
   14800         8255    51.914956   0.81899973   0.81866199    1.4300569    1.4173119 
   14900         8245    51.956855    0.8180076    0.8209138    1.4484615    1.4104879 
   15000         8259    51.958419   0.81939658   0.82185215      1.51862    1.4510068 
   15100         8251    51.884962   0.81860288   0.82728852    1.4877554    1.4395157 
   15200         8258    51.941527   0.81929737    0.8243636    1.4796077    1.4651423 
   15300         8235    51.963128   0.81701548   0.82399823    1.4441011    1.4879131 
   15400         8244    51.942371   0.81790839   0.82635876    1.4471823    1.4668068 
   15500         8237    51.974557    0.8172139   0.83260185    1.3873662     1.454412 
   15600         8272     51.97057   0.82068634   0.82869704    1.5350026    1.5110452 
   15700         8263    51.954975   0.81979343   0.83247407    1.5299332    1.4965015 
   15800         8250     51.93557   0.81850367   0.83690152    1.4520533    1.4939072 
   15900         8249    51.916642   0.81840445   0.83288902    1.5301876    1.5206902 
   16000         8258    51.958418   0.81929737   0.83630425    1.5770353    1.5240577 
   16100         8276    51.963252   0.82108319   0.83917676    1.6341267    1.5283146 
   16200         8276    51.913414   0.82108319   0.83759124    1.6769528    1.5517628 
   16300         8267    51.943488   0.82019028   0.84510614    1.5878874    1.5347526 
   16400         8263    51.954759   0.81979343   0.84199636    1.6760608    1.5572754 
   16500         8279     51.96181   0.82138083   0.84527411     1.635673    1.5479025 
   16600         8280    51.979593   0.82148004   0.84636589    1.6255557     1.554852 
   16700         8250    51.926755   0.81850367   0.84208619    1.5811636    1.6018397 
   16800         8243    51.980824   0.81780918   0.85040327    1.5430195    1.5804182 
   16900         8241    51.934262   0.81761075   0.84945047    1.5620399    1.6101283 
   17000         8214    51.964452   0.81493202   0.85356354    1.5205365    1.6108992 
   17100         8206    51.938225   0.81413831   0.85519447     1.516826    1.6276213 
   17200         8196    51.947683   0.81314619   0.85468363    1.5808271    1.6386292 
   17300         8224    51.971329   0.81592414   0.85731645    1.4820788    1.6162138 
   17400         8232    51.940733   0.81671784   0.85754794    1.5965713    1.6370601 
   17500         8242    51.932834   0.81770997   0.85797183    1.6937713    1.6454899 
   17600         8278    51.951507   0.82128162   0.85989598    1.7624186    1.6620733 
   17700         8262    51.930485   0.81969422   0.86550863    1.6776366    1.6369917 
   17800         8281     51.90603   0.82157926   0.86171723    1.7592672    1.6703396 
   17900         8258    51.966776   0.81929737   0.86459792    1.7666494    1.6750513 
   18000         8307     51.96657   0.82415878   0.86491625    1.8262514    1.6881569 
   18100         8286    51.954916   0.82207532    0.8684512    1.7799445    1.7080281 
   18200         8267    51.952797   0.82019028   0.87238805    1.7085014    1.6770849 
   18300         8275    51.971005   0.82098398     0.867776    1.7700317    1.7102905 
   18400         8281    51.905634   0.82157926   0.87035149    1.7385643    1.7049187 
   18500         8280    51.948539   0.82148004   0.87107657    1.6926425    1.7170813 
   18600         8208    51.932391   0.81433674   0.87335549    1.7071904    1.7320148 
   18700         8241    51.961878   0.81761075   0.86938675    1.7035388    1.7665713 
   18800         8257    51.944816   0.81919816   0.87124618    1.6465016    1.7702258 
   18900         8256    51.952751   0.81909894   0.87345353    1.7129525    1.7642578 
   19000         8247    51.975212   0.81820603   0.87951036    1.6973349    1.7562564 
   19100         8234    51.951765   0.81691627   0.87856829    1.7293489    1.7824278 
   19200         8239     51.94594   0.81741233   0.88184554    1.6005599    1.7406943 
   19300         8261     51.94474   0.81959501   0.88185335    1.7415386    1.7796024 
   19400         8254     51.94242   0.81890052   0.88289977    1.8179495    1.7947256 
   19500         8272    51.939244   0.82068634   0.88668842    1.7773444    1.7978291 
   19600         8277    51.922079   0.82118241   0.88758862    1.8474558    1.8274893 
   19700         8252    51.954644   0.81870209   0.88921677    1.8170288    1.8151825 
   19800         8245    51.950205    0.8180076   0.89027226    1.8042886    1.8218191 
   19900         8289    51.932727   0.82237296   0.89291741    1.8059625    1.8196149 
   20000         8293    51.941637   0.82276981   0.89297416    1.9155885    1.8295592 
   20100         8315    51.936395   0.82495248   0.89560417    1.9339732     1.828072 
   20200         8272    51.916974   0.82068634   0.89540673    1.9088258    1.8436958 
   20300         8291    51.915676   0.82257138   0.89674767    1.9077235    1.8290075 
   20400         8254    51.944299   0.81890052   0.89595934    1.8682245    1.8608943 
   20500         8258    51.948867   0.81929737   0.89631069     2.003972    1.8714088 
   20600         8248    51.944044   0.81830524   0.89968502    1.9159343    1.8629734 
   20700         8240    51.905525   0.81751154   0.90069039    1.8108925    1.8794477 
   20800         8226    51.919558   0.81612257   0.89941909    1.8405099    1.8937144 
   20900         8245    51.945529    0.8180076   0.90178793    1.8606901    1.9014582 
   21000         8260    51.910902   0.81949579    0.9023521    1.9118302    1.8970207 
   21100         8257    51.924344   0.81919816    0.9033775    1.9454698    1.8964131 
   21200         8249    51.957443   0.81840445   0.90783392    1.9153849    1.9043941 
   21300         8256    51.940093   0.81909894   0.90609504    1.9198582    1.9014485 
   21400         8244    51.971316   0.81790839   0.90774174    1.9656352    1.9268387 
   21500         8244    51.933853   0.81790839   0.90800361    1.8736101    1.9394639 
   21600         8270     51.95822   0.82048792   0.91211696    2.0252394    1.9534229 
   21700         8243    51.952311   0.81780918   0.91256371    1.9794578     1.958811 
   21800         8264    51.964529   0.81989264   0.91556729    1.9810003    1.9433117 
   21900         8245    51.941113    0.8180076   0.91439984    1.9957291    1.9661023 
   22000         8235     51.91887   0.81701548   0.91691587     2.020183    1.9772816 
   22100         8245     51.94964    0.8180076   0.92088918    2.0172333    1.9507297 
   22200         8265    51.960681   0.81999186   0.91784098    2.0703707    1.9820687 
   22300         8260    51.940376   0.81949579   0.91636261    1.9775127    1.9894378 
   22400         8276    51.942773   0.82108319   0.92000314    2.0537961    1.9838683 
   22500         8264    51.942282   0.81989264   0.92307189    2.0290286    1.9800035 
   22600         8246    51.942427   0.81810682   0.92090357    1.9947572    2.0113719 
   22700         8244    51.951853   0.81790839   0.92369341    2.0360619    2.0120762 
   22800         8232    51.967594   0.81671784    0.9253899    1.9513783    2.0010234 
   22900         8256    51.937376   0.81909894   0.92664854    2.0821449    2.0139234 
   23000         8237    51.971354    0.8172139   0.92670434    2.0749625    2.0252152 
   23100         8232    51.942632   0.81671784   0.92950517    1.9839619    2.0116787 
   23200         8241     51.93229   0.81761075   0.92966888    1.9933876    2.0374601 
   23300         8239    51.951151   0.81741233   0.92746022    1.9510893    2.0326639 
   23400         8257    51.914179   0.81919816   0.92802368    2.0363244    2.0587686 
   23500         8271    51.900185   0.82058713   0.92853794    2.1146101    2.0437335 
   23600         8257    51.953013   0.81919816   0.92922632    2.0864711    2.0626978 
   23700         8238    51.950021   0.81731312   0.93253098    2.0303401    2.0551084 
   23800         8203    51.936855   0.81384068   0.93282468    1.9742875    2.0465991 
   23900         8232    51.939051   0.81671784   0.92828967     2.029202    2.0879089 
   24000         8216    51.959185   0.81513044   0.93034842    2.0326648    2.0930494 
   24100         8263    51.942463   0.81979343   0.93235634    2.0807763    2.0939541 
   24200         8262    51.945441   0.81969422   0.93722833    2.0425587    2.0626705 
   24300         8267    51.928988   0.82019028    0.9383087     2.140541    2.0695606 
   24400         8259     51.95728   0.81939658   0.93747758    2.0854326     2.086982 
   24500         8270    51.903874   0.82048792   0.94336142    2.0722704    2.0846315 
   24600         8256    51.956848   0.81909894   0.94258765     2.165094    2.0971849 
   24700         8264    51.946967   0.81989264   0.94194467    2.2074083    2.1203151 
   24800         8286    51.936296   0.82207532   0.94565017    2.1796852    2.0992497 
   24900         8269    51.916975   0.82038871   0.94188452    2.2180427    2.1256964 
   25000         8243    51.936049   0.81780918   0.94382613    2.1397801    2.1331512 
   25100         8249    51.896104   0.81840445   0.94469692    2.1114091    2.1240794 
   25200         8239    51.932851   0.81741233   0.94524373    2.1158462    2.1302549 
   25300         8241    51.944676   0.81761075    0.9467971    2.0843406    2.1133756 
   25400         8230    51.937779   0.81651942   0.94662337    2.1310518    2.1377931 
   25500         8253    51.951065   0.81880131   0.95379449    2.0877104    2.1197411 
   25600         8254    51.932467   0.81890052   0.94836647    2.1019013    2.1537395 
   25700         8292    51.962171    0.8226706   0.95142883    2.1479886    2.1359546 
   25800         8251    51.931789   0.81860288   0.95398541    2.1163632    2.1541374 
   25900         8283    51.915567   0.82177768    0.9520049    2.2287705     2.156433 
   26000         8276    51.926758   0.82108319   0.94970378    2.2379907    2.1913963 
   26100         8288    51.953813   0.82227374   0.95721914    2.2074864    2.1391607 
   26200         8255    51.933955   0.81899973    0.9556146    2.1446385    2.1508559 
   26300         8259    51.901737   0.81939658   0.95707017    2.1431274    2.1748201 
   26400         8252    51.948966   0.81870209   0.95609937    2.0947015    2.1816333 
   26500         8253      51.9446   0.81880131   0.95657436    2.1259211    2.1779688 
   26600         8256    51.957867   0.81909894   0.95873222    2.1393251    2.1817379 
   26700         8242    51.925544   0.81770997   0.95995681    2.2095352    2.1939036 
   26800         8246    51.936804   0.81810682   0.96005751    2.1902755    2.1815983 
   26900         8270    51.909738   0.82048792   0.96351166    2.2474715    2.1678599 
   27000         8264    51.946755   0.81989264   0.96014533    2.3170033    2.1854101 
   27100         8282    51.928223   0.82167847   0.96099603    2.2957932    2.1874009 
   27200         8238    51.946463   0.81731312   0.96331949    2.2107179    2.1806148 
   27300         8247    51.947101   0.81820603   0.96476104    2.1625654    2.1854863 
   27400         8237    51.953597    0.8172139   0.96374639    2.1261043    2.1919304 
   27500         8260    51.936485   0.81949579   0.96647594    2.1387117    2.1776097 
   27600         8238    51.919412   0.81731312   0.96188844    2.1894139    2.2371529 
   27700         8257    51.937141   0.81919816   0.96701111    2.2231074    2.2181084 
   27800         8239    51.954279   0.81741233    0.9642195    2.1715365    2.2226473 
   27900         8224    51.921512   0.81592414   0.96588554    2.1668355    2.2310276 
   28000         8218    51.944727   0.81532887   0.97149503     2.272395    2.2233618 
   28100         8232    51.913693   0.81671784   0.97344919    2.2824052    2.1998618 
   28200         8269    51.951439   0.82038871   0.96969428     2.278797    2.2393361 
   28300         8276    51.918445   0.82108319   0.96923715    2.3937867    2.2667653 
   28400         8290    51.965025   0.82247217   0.97053311    2.3020574    2.2505765 
   28500         8249    51.960558   0.81840445   0.97475241    2.3188447    2.2565096 
   28600         8253    51.950694   0.81880131    0.9692287    2.2405561    2.2745686 
   28700         8261    51.938882   0.81959501   0.96915048    2.3458093    2.2935616 
   28800         8235    51.951997   0.81701548   0.97258046    2.2255062    2.2648726 
   28900         8228    51.946355   0.81632099   0.97592285    2.2434647    2.2517957 
   29000         8230    51.962347   0.81651942    0.9740664    2.2433823    2.2815155 
   29100         8250    51.945522   0.81850367   0.97918954     2.265865    2.2629039 
   29200         8254    51.888743   0.81890052   0.97680941    2.1881464    2.2867888 
   29300         8234    51.922147   0.81691627   0.97595155    2.2849214    2.3108983 
   29400         8251    51.948901   0.81860288   0.97795823    2.2668956    2.2986262 
   29500         8242    51.952918   0.81770997   0.97602592    2.3182291    2.3113347 
   29600         8225    51.959744   0.81602335   0.97823323    2.2165959    2.2872726 
   29700         8218    51.911428   0.81532887   0.97990027    2.2216114    2.3038715 
   29800         8216    51.907952   0.81513044   0.98285514    2.2786818    2.2819519 
   29900         8237     51.93928    0.8172139   0.98033932    2.2821686     2.305668 
   30000         8230    51.946766   0.81651942   0.98412851    2.3450974    2.2958313 
   30100         8231    51.951756   0.81661863   0.98204282    2.3732437    2.3122998 
   30200         8253    51.924569   0.81880131   0.98440896    2.4077284    2.3078898 
   30300         8266    51.925325   0.82009107    0.9818091    2.3684021    2.3350112 
   30400         8262    51.964803   0.81969422   0.98663994    2.3734307    2.3062841 
   30500         8261    51.930849   0.81959501   0.98381672    2.3414895    2.3284275 
   30600         8254    51.922417   0.81890052   0.98652837    2.3178116    2.3030714 
   30700         8255    51.960012   0.81899973   0.98720238    2.2704971    2.3193766 
   30800         8234    51.953731   0.81691627   0.99354636    2.3233281    2.2896758 
   30900         8259    51.935709   0.81939658   0.98933622    2.3135015    2.3443371 
   31000         8221    51.885361    0.8156265   0.99238945    2.2629909    2.3116151 
   31100         8208    51.932635   0.81433674    0.9838801    2.2738348    2.3908214 
   31200         8236    51.939705   0.81711469   0.98829335    2.2920711    2.3514714 
   31300         8251    51.934465   0.81860288    0.9911686    2.3731061     2.331902 
   31400         8231    51.936781   0.81661863   0.99663553    2.3932682    2.3389662 
   31500         8255    51.917588   0.81899973   0.98973657    2.4469996    2.3643811 
   31600         8289     51.93639   0.82237296   0.98983669    2.4380638    2.3588279 
   31700         8271    51.922725   0.82058713   0.99484761    2.4902476    2.3633485 
   31800         8273    51.930665   0.82078556   0.99634688    2.4514174    2.3460826 
   31900         8248    51.960066   0.81830524   0.99296468    2.3619053    2.4075764 
   32000         8262    51.901923   0.81969422   0.99386474    2.4276779    2.3910367 
   32100         8247    51.926795   0.81820603   0.99843713    2.3900053    2.3623546 
   32200         8246     51.94303   0.81810682    0.9981232    2.3705041    2.3695164 
   32300         8269    51.917074   0.82038871    0.9977109    2.4012878    2.3932722 
   32400         8251    51.927422   0.81860288    0.9980536    2.3484889    2.3991669 
   32500         8219    51.900035   0.81542808   0.99682011    2.3846588    2.4140429 
   32600         8254    51.954073   0.81890052   0.99832373    2.4275907    2.3931556 
   32700         8240     51.93869   0.81751154   0.99580535    2.3647813    2.4196969 
   32800         8261    51.932587   0.81959501    1.0016215    2.3449058    2.3997851 
   32900         8282    51.958796   0.82167847    1.0010571    2.4831671    2.4067883 
   33000         8272    51.866545   0.82068634    1.0071048    2.3543933    2.3799418 
   33100         8285     51.96259   0.82197611    1.0030357    2.4423757     2.410514 
   33200         8242    51.907068   0.81770997    1.0074891    2.3671542    2.3996475 
   33300         8227    51.939636   0.81622178    1.0051682    2.3784078     2.429592 
   33400         8230     51.94721   0.81651942    1.0033524     2.416709    2.4404934 
   33500         8239    51.970278   0.81741233    1.0059534    2.4115407    2.4413375 
   33600         8264    51.925782   0.81989264     1.006208    2.3770938    2.4292459 
   33700         8263    51.921569   0.81979343    1.0124012    2.3838297    2.4133004 
   33800         8264    51.939201   0.81989264    1.0097283    2.4286903    2.4425332 
   33900         8283    51.943296   0.82177768     1.007543    2.5485367    2.4384629 
   34000         8276    51.959474   0.82108319    1.0062631    2.5444838    2.4495675 
   34100         8287    51.939833   0.82217453    1.0059483    2.5409472    2.4737202 
   34200         8290    51.931102   0.82247217    1.0068063    2.4768302    2.4402476 
   34300         8279    51.896417   0.82138083    1.0130335      2.41652    2.4467617 
   34400         8277    51.953551   0.82118241    1.0129703    2.4424305    2.4424605 
   34500         8254    51.900373   0.81890052    1.0137967    2.3536891    2.4587692 
   34600         8240    51.919465   0.81751154    1.0143714    2.4091085    2.4693604 
   34700         8256    51.908944   0.81909894    1.0076178     2.433609    2.4748769 
   34800         8271    51.956534   0.82058713    1.0161258    2.5773127    2.4550148 
   34900         8258    51.937127   0.81929737    1.0129731    2.4923388    2.4682544 
   35000         8262    51.919537   0.81969422    1.0144034    2.4575644    2.4602725 
   35100         8264    51.958614   0.81989264    1.0166092    2.5196079    2.4692486 
   35200         8293    51.893116   0.82276981    1.0196528    2.4876557    2.4746622 
   35300         8269    51.950058   0.82038871     1.012225    2.5321863    2.5228611 
   35400         8259    51.954464   0.81939658    1.0163919    2.4790228    2.4805054 
   35500         8267     51.94525   0.82019028    1.0225642    2.4361721    2.4765815 
   35600         8264     51.94073   0.81989264    1.0206798    2.5264278    2.5037159 
   35700         8272    51.938505   0.82068634    1.0175614    2.5237022    2.5047554 
   35800         8289    51.916294   0.82237296    1.0201072    2.5638595    2.5123364 
   35900         8277    51.906992   0.82118241    1.0201672    2.5690822    2.5054997 
   36000         8265    51.928925   0.81999186    1.0174684    2.5364447    2.5345464 
   36100         8273    51.944712   0.82078556    1.0161917    2.5492692    2.5463578 
   36200         8243    51.933341   0.81780918    1.0273503    2.4468688    2.4829488 
   36300         8223    51.913811   0.81582493    1.0186683    2.4615523    2.5466908 
   36400         8241    51.892817   0.81761075    1.0199552    2.4126925    2.5151465 
   36500         8257    51.916929   0.81919816    1.0239454    2.5937961    2.5208342 
   36600         8257    51.926612   0.81919816    1.0203852    2.5567679    2.5074558 
   36700         8262    51.950254   0.81969422    1.0236444    2.6211843    2.5252885 
   36800         8267    51.924457   0.82019028    1.0199156    2.5660586    2.5497851 
   36900         8246    51.959035   0.81810682    1.0284462     2.463728    2.5079644 
   37000         8237    51.934711    0.8172139    1.0259828    2.4415397    2.5203094 
   37100         8245     51.93344    0.8180076    1.0235579    2.5727466    2.5462946 
   37200         8241    51.906505   0.81761075    1.0220318    2.5626313    2.5667593 
   37300         8278    51.958513   0.82128162    1.0228233     2.586424    2.5618976 
   37400         8251    51.953656   0.81860288     1.028876    2.5416169    2.5337227 
   37500         8246     51.90109   0.81810682    1.0260687    2.5415324    2.5699144 
   37600         8281    51.933801   0.82157926    1.0260984     2.638199    2.5599867 
   37700         8265    51.932697   0.81999186    1.0295072    2.6627865    2.5507691 
   37800         8282     51.91939   0.82167847    1.0282695    2.7087908    2.5711708 
   37900         8290    51.957041   0.82247217    1.0284495     2.655476    2.5851706 
   38000         8279    51.934687   0.82138083    1.0317229    2.5515336    2.5520581 
   38100         8279    51.943991   0.82138083    1.0306478    2.5659925    2.5580914 
   38200         8298    51.891456   0.82326587    1.0305756    2.6770056    2.5716748 
   38300         8249    51.943745   0.81840445    1.0315833     2.591182    2.5574113 
   38400         8266    51.898628   0.82009107    1.0282158    2.5763421    2.5945301 
   38500         8261    51.946647   0.81959501    1.0331466    2.5169575    2.5570862 
   38600         8283    51.941281   0.82177768    1.0317998    2.5393508    2.5504587 
   38700         8282    51.922443   0.82167847    1.0288142    2.5691774    2.5789307 
   38800         8277    51.917534   0.82118241    1.0307912    2.6041389    2.5883582 
   38900         8269    51.917982   0.82038871     1.030735    2.5447657    2.5854222 
   39000         8299    51.956953   0.82336508    1.0315849    2.5867922    2.5676916 
   39100         8278    51.943505   0.82128162    1.0298687    2.7024988    2.5943286 
   39200         8261    51.911657   0.81959501    1.0337377    2.5925338    2.5778293 
   39300         8269    51.941228   0.82038871    1.0368643    2.5285766    2.5669106 
   39400         8269    51.953068   0.82038871    1.0351241    2.6651867    2.5973914 
   39500         8256    51.949121   0.81909894    1.0398273    2.5887306    2.5744063 
   39600         8252    51.912104   0.81870209    1.0373404    2.5460607     2.596831 
   39700         8274     51.92697   0.82088477     1.036655    2.5115742    2.5959697 
   39800         8273    51.918351   0.82078556    1.0353492    2.6748151    2.6190943 
   39900         8258    51.881734   0.81929737    1.0356355    2.5688865    2.5992996 
   40000         8254    51.939031   0.81890052    1.0394016    2.4940512    2.5806213 
   40100         8239    51.932412   0.81741233    1.0373889    2.5448686    2.6221173 
   40200         8259    51.929987   0.81939658    1.0391522    2.5823197    2.5964071 
   40300         8260    51.942848   0.81949579    1.0400855    2.6312853    2.5949519 
   40400         8263    51.943452   0.81979343    1.0390086    2.6326569    2.6438921 
   40500         8260    51.968488   0.81949579    1.0408952    2.6589362    2.6343233 
   40600         8261    51.869036   0.81959501    1.0390526    2.6304512    2.6409591 
   40700         8243    51.949604   0.81780918    1.0421669     2.583258    2.6113573 
   40800         8255    51.944739   0.81899973    1.0390122    2.5496317    2.6215161 
   40900         8256     51.91174   0.81909894    1.0419261    2.6499681    2.6122941 
   41000         8279    51.931208   0.82138083    1.0423453    2.7077789    2.6178277 
   41100         8247    51.940493   0.81820603     1.045799    2.5964195    2.5966094 
   41200         8284    51.924539   0.82187689    1.0418424    2.6502247    2.6453402 
   41300         8289     51.93026   0.82237296    1.0460519    2.6098971    2.5987108 
   41400         8267    51.904966   0.82019028    1.0427469    2.6760594    2.6263487 
   41500         8253    51.934807   0.81880131    1.0460124    2.6131459    2.6288074 
   41600         8268    51.945802   0.82028949    1.0460768     2.595158    2.6020621 
   41700         8256    51.926433   0.81909894    1.0437312    2.7100226     2.642065 
   41800         8265     51.95286   0.81999186    1.0466177    2.6247023    2.6116882 
   41900         8245    51.940731    0.8180076    1.0472177    2.5988052     2.620576 
   42000         8255    51.913317   0.81899973    1.0438591    2.5380472     2.641716 
   42100         8224    51.911498   0.81592414    1.0489618    2.5428563     2.610829 
   42200         8257    51.949145   0.81919816    1.0474983    2.6714554    2.6143659 
   42300         8245    51.906998    0.8180076    1.0461097    2.5920136    2.6522065 
   42400         8272    51.939382   0.82068634    1.0442018    2.6404179    2.6582294 
   42500         8266    51.904478   0.82009107    1.0452698     2.764921    2.6583337 
   42600         8273    51.878792   0.82078556     1.044164    2.7536323    2.6675292 
   42700         8267    51.929639   0.82019028    1.0500569    2.6462945    2.6274105 
   42800         8238    51.896757   0.81731312    1.0488607    2.5790134    2.6643744 
   42900         8245    51.907724    0.8180076    1.0501519    2.5910538     2.645271 
   43000         8250    51.947158   0.81850367    1.0517316     2.696862     2.647463 
   43100         8283     51.94707   0.82177768    1.0509529    2.7623509    2.6558436 
   43200         8262    51.918622   0.81969422    1.0457141     2.673133    2.6830543 
   43300         8258    51.929884   0.81929737    1.0493474     2.689033    2.6809361 
   43400         8269    51.927273   0.82038871    1.0511892    2.7820197    2.6587625 
   43500         8271    51.914514   0.82058713    1.0546115    2.7073641    2.6752041 
   43600         8272    51.899548   0.82068634    1.0507326    2.8311205    2.7028153 
   43700         8250     51.93971   0.81850367    1.0531153    2.6912872    2.6772105 
   43800         8244    51.923287   0.81790839     1.056398    2.6979197    2.6466745 
   43900         8214    51.951898   0.81493202    1.0547193    2.6029042    2.6634674 
   44000         8227      51.9022   0.81622178    1.0505775    2.6697678    2.7131752 
   44100         8233    51.934279   0.81681705    1.0544999    2.5967017    2.6724537 
   44200         8227    51.937822   0.81622178    1.0551675    2.6461425    2.6656993 
   44300         8242    51.925196   0.81770997    1.0565151     2.560642     2.666346 
   44400         8263    51.950383   0.81979343    1.0485992     2.734185    2.7115465 
   44500         8258    51.914783   0.81929737    1.0544414    2.7309768    2.6978084 
   44600         8258    51.946753   0.81929737    1.0559264    2.6967032     2.691855 
   44700         8256    51.892372   0.81909894    1.0536784    2.6554709    2.7015067 
   44800         8261    51.925718   0.81959501    1.0555851    2.6909292    2.7030997 
   44900         8288    51.889943   0.82227374    1.0529232    2.7755046    2.7013439 
   45000         8260    51.942818   0.81949579    1.0596756     2.576272    2.6633388 
   45100         8284    51.942683   0.82187689    1.0542455    2.7083266    2.7026819 
   45200         8283    51.912171   0.82177768    1.0568319    2.6829978    2.6753218 
   45300         8261    51.937999   0.81959501    1.0519821    2.7232885    2.6977439 
   45400         8255    51.957297   0.81899973    1.0539408    2.6568095    2.7163351 
   45500         8263    51.949484   0.81979343    1.0556976    2.7424592    2.7020808 
   45600         8266    51.967788   0.82009107    1.0596556    2.7589107    2.6686424 
   45700         8237    51.935621    0.8172139    1.0563113    2.6974288    2.7000358 
   45800         8261    51.885535   0.81959501    1.0568043    2.7162209     2.701615 
   45900         8251    51.851918   0.81860288    1.0591221    2.6890969    2.7118562 
   46000         8251    51.904421   0.81860288      1.06306    2.6642134    2.6767294 
   46100         8282    51.948159   0.82167847    1.0572038     2.725879     2.703896 
   46200         8267    51.939729   0.82019028    1.0567414    2.7242543    2.7418163 
   46300         8259    51.926036   0.81939658    1.0664671    2.6047911    2.6549124 
   46400         8253    51.942958   0.81880131    1.0590618     2.637833    2.7279985 
   46500         8239    51.923845   0.81741233    1.0588595    2.5981069    2.7406363 
   46600         8263    51.933173   0.81979343    1.0606675    2.6825297    2.7257398 
   46700         8254    51.898946   0.81890052    1.0569753    2.6579164    2.7399711 
   46800         8282    51.953325   0.82167847    1.0608312    2.7652043    2.7287311 
   46900         8264    51.951425   0.81989264    1.0594285    2.7740564    2.7061139 
   47000         8293    51.945665   0.82276981    1.0619367    2.7572485     2.713575 
   47100         8299    51.921262   0.82336508    1.0579776    2.8671673    2.7438313 
   47200         8260    51.959854   0.81949579    1.0632174    2.7199364    2.7371559 
   47300         8270    51.927841   0.82048792    1.0603001    2.7253652    2.7341826 
   47400         8304    51.950507   0.82386115    1.0660828    2.7544421    2.7006676 
   47500         8280    51.946142   0.82148004    1.0630953    2.8137132     2.740624 
   47600         8251     51.94904   0.81860288    1.0674755    2.6547755    2.7157253 
   47700         8261    51.948003   0.81959501       1.0649    2.8224778    2.7404399 
   47800         8243    51.879027   0.81780918    1.0661727    2.6687433    2.7276051 
   47900         8240    51.922435   0.81751154    1.0646438    2.6746889    2.7458802 
   48000         8271    51.917974   0.82058713    1.0633714    2.7757528    2.7644314 
   48100         8247    51.930746   0.81820603    1.0672248    2.7074921    2.7380453 
   48200         8234    51.958421   0.81691627    1.0667149    2.6872368    2.7474532 
   48300         8220    51.912435   0.81552729     1.069094    2.6351793    2.7208939 
   48400         8248    51.957237   0.81830524    1.0629745    2.7270511    2.7494705 
   48500         8233    51.933092   0.81681705    1.0641416    2.7348988    2.7325138 
   48600         8222    51.950527   0.81572572    1.0683214    2.6587163    2.7216464 
   48700         8265    51.900629   0.81999186    1.0646439    2.7258189    2.7586467 
   48800         8268     51.95218   0.82028949    1.0679163    2.7911841    2.7384246 
   48900         8251    51.937967   0.81860288      1.06541    2.7715075    2.7527169 
   49000         8222    51.956316   0.81572572    1.0675307    2.7597135    2.7525881 
   49100         8258    51.943029   0.81929737    1.0693451    2.7118519    2.7344157 
   49200         8241    51.940154   0.81761075    1.0685374    2.7096732    2.7410145 
   49300         8241    51.954192   0.81761075      1.06994     2.752057    2.7618438 
   49400         8240    51.889155   0.81751154    1.0653378     2.797075    2.7904466 
   49500         8213    51.921611    0.8148328    1.0710935    2.7072851    2.7363344 
   49600         8237    51.941669    0.8172139    1.0652288    2.7067703    2.7734989 
   49700         8244    51.925468   0.81790839    1.0660988    2.6812751    2.7792501 
   49800         8223    51.920249   0.81582493    1.0680638    2.7401167    2.7516981 
   49900         8237    51.942469    0.8172139    1.0656687    2.7650765    2.7778568 
   50000         8270    51.948115   0.82048792    1.0692464    2.8433708    2.7653144 
   50100         8240    51.923382   0.81751154    1.0669769    2.7821489    2.7594522 
   50200         8253    51.897053   0.81880131    1.0659957    2.8575414    2.7862204 
   50300         8243    51.916613   0.81780918    1.0742836    2.6948875    2.7206138 
   50400         8255    51.926882   0.81899973    1.0689923      2.83689    2.7726451 
   50500         8253    51.957223   0.81880131    1.0662515    2.8417926    2.7719125 
   50600         8252    51.933793   0.81870209    1.0689792    2.7807533    2.7712109 
   50700         8229     51.93703    0.8164202    1.0724186    2.6105053    2.7418725 
   50800         8236    51.910241   0.81711469    1.0678775    2.7071371     2.764223 
   50900         8232     51.94827   0.81671784    1.0721511    2.7100759    2.7421193 
   51000         8260    51.890919   0.81949579    1.0749461    2.7203785    2.7585176 
   51100         8275    51.931683   0.82098398    1.0688513    2.8701922    2.7905659 
   51200         8286    51.913253   0.82207532    1.0700313    2.8123821    2.7761305 
   51300         8291     51.94491   0.82257138    1.0646862    2.8548649    2.8141378 
   51400         8291    51.923785   0.82257138    1.0745886    2.8585014    2.7542246 
   51500         8289    51.918607   0.82237296    1.0729283     2.844214    2.7638001 
   51600         8291    51.901412   0.82257138    1.0714219    2.7804041    2.7758386 
   51700         8276    51.947321   0.82108319    1.0727728     2.771291    2.7728342 
   51800         8249    51.948507   0.81840445    1.0708331    2.7369601    2.7872825 
   51900         8271    51.901491   0.82058713    1.0670423    2.8180085    2.8120766 
   52000         8282    51.915653   0.82167847    1.0724769    2.8758456    2.7793539 
   52100         8310    51.927164   0.82445642    1.0756085    2.8662435    2.7661584 
   52200         8277    51.928431   0.82118241    1.0721617    2.7769347    2.7876945 
   52300         8223    51.918641   0.81582493       1.0744    2.6697678    2.7541831 
   52400         8216    51.920818   0.81513044    1.0753571    2.6635937    2.7560299 
   52500         8233    51.947051   0.81681705    1.0750481    2.7169832    2.7479347 
   52600         8240    51.928006   0.81751154     1.071715    2.7064951    2.7777252 
   52700         8255    51.942976   0.81899973    1.0749435    2.7827422    2.7441418 
   52800         8249    51.942827   0.81840445    1.0704222    2.7763844    2.7874907 
   52900         8272    51.931701   0.82068634    1.0715682    2.8008983    2.7837941 
   53000         8268    51.953232   0.82028949    1.0739745    2.7892646    2.7497411 
   53100         8240    51.934402   0.81751154    1.0732762    2.6961165    2.7650841 
   53200         8237    51.950247    0.8172139    1.0712627    2.8008094    2.7944734 
   53300         8246    51.956759   0.81810682    1.0727872    2.7268709    2.7689015 
   53400         8242    51.947326   0.81770997    1.0691545    2.7801182    2.8053915 
   53500         8259    51.906025   0.81939658    1.0736294    2.7954096    2.7766883 
   53600         8237    51.937019    0.8172139    1.0754728    2.7582962     2.766716 
   53700         8231    51.877098   0.81661863    1.0719745    2.7143096    2.7848645 
   53800         8239    51.927366   0.81741233    1.0739917    2.7856796    2.7836523 
   53900         8236    51.921762   0.81711469    1.0753272    2.7766457    2.7744649 
   54000         8214    51.929064   0.81493202    1.0723399    2.7517878    2.7862699 
   54100         8204    51.934755   0.81393989    1.0718385    2.6371944    2.7711388 
   54200         8243    51.925611   0.81780918    1.0757396    2.7427278     2.775941 
   54300         8269    51.941651   0.82038871    1.0715591    2.8833277    2.7963596 
   54400         8274    51.938933   0.82088477    1.0741496    2.8799839    2.7902856 
   54500         8239    51.928597   0.81741233    1.0766421    2.7465761    2.7705494 
   54600         8237    51.913986    0.8172139     1.067006    2.8164147    2.8046217 
   54700         8250    51.921947   0.81850367    1.0745389    2.7310311     2.765624 
   54800         8231    51.938196   0.81661863    1.0701676    2.7711421    2.7927024 
   54900         8236    51.862716   0.81711469    1.0751713    2.8091866    2.7626805 
   55000         8276    51.937232   0.82108319    1.0747555     2.930099    2.7942695 
   55100         8250    51.912383   0.81850367     1.075709    2.8038988    2.7930037 
   55200         8263    51.934547   0.81979343    1.0752191    2.8977551    2.7970345 
   55300         8266    51.913883   0.82009107    1.0767311    2.8117654       2.7743 
   55400         8250    51.915374   0.81850367    1.0755747    2.7802111    2.7762269 
   55500         8243    51.943172   0.81780918    1.0741014    2.8324504    2.7906728 
   55600         8250    51.883554   0.81850367    1.0740426    2.8251606    2.7718179 
   55700         8243    51.948371   0.81780918    1.0781054    2.7712139    2.7681468 
   55800         8251    51.935734   0.81860288    1.0810452    2.7769446    2.7442223 
   55900         8223    51.933336   0.81582493    1.0777565    2.6836281    2.7719268 
   56000         8255    51.959225   0.81899973    1.0768214     2.702933    2.7818954 
   56100         8231    51.930676   0.81661863    1.0776357    2.6670632    2.7667979 
   56200         8243    51.926414   0.81780918    1.0748234    2.7569248    2.7828937 
   56300         8259    51.902128   0.81939658    1.0809354    2.7333977    2.7544739 
   56400         8245    51.932286    0.8180076    1.0769906    2.8356946    2.7819947 
   56500         8284    51.945736   0.82187689     1.071967     2.934607    2.8036953 
   56600         8266    51.929289   0.82009107    1.0778998    2.8220814    2.7833528 
   56700         8249    51.932993   0.81840445      1.07455    2.8799267    2.8069552 
   56800         8260    51.903363   0.81949579    1.0777585    2.8401571    2.7795063 
   56900         8278    51.937424   0.82128162     1.073781    2.9210457    2.8259521 
   57000         8259    51.899296   0.81939658    1.0801436    2.8854477    2.7847313 
   57100         8222    51.952253   0.81572572    1.0768552    2.7482395    2.8088896 
   57200         8238    51.912294   0.81731312    1.0767614    2.7508018     2.808791 
   57300         8224    51.868183   0.81592414    1.0725323      2.75839    2.8320123 
   57400         8264    51.924739   0.81989264    1.0782014    2.8738466    2.8016693 
   57500         8251    51.957744   0.81860288    1.0787891    2.8892803    2.8058753 
   57600         8282    51.949397   0.82167847      1.08037     2.907998    2.7935244 
   57700         8284    51.947343   0.82187689    1.0802686    2.8688509    2.7998248 
   57800         8246     51.91622   0.81810682    1.0769505    2.7837064    2.8274581 
   57900         8225    51.931509   0.81602335    1.0787645    2.7860217    2.8299002 
   58000         8245    51.902869    0.8180076    1.0787542    2.7838149    2.8110834 
   58100         8263     51.92752   0.81979343    1.0803318    2.7649899    2.7950999 
   58200         8235    51.908364   0.81701548    1.0788872    2.7955879    2.8035384 
   58300         8224    51.937266   0.81592414    1.0790119    2.7839997    2.8094748 
   58400         8227    51.921478   0.81622178    1.0790523    2.8626803    2.7837881 
   58500         8247    51.908904   0.81820603    1.0754008    2.8884853    2.8211468 
   58600         8232    51.948639   0.81671784    1.0784945    2.7783135    2.7932845 
   58700         8225     51.93373   0.81602335    1.0776711    2.8113942    2.8094071 
   58800         8242    51.904086   0.81770997    1.0753663    2.7779815    2.8038987 
   58900         8235    51.912716   0.81701548    1.0771155     2.818643    2.8016634 
   59000         8255    51.929524   0.81899973    1.0757449    2.8521973    2.8220332 
   59100         8240    51.919444   0.81751154    1.0764619     2.823486     2.814374 
   59200         8258    51.960208   0.81929737    1.0778684    2.8598344     2.825628 
   59300         8261    51.923026   0.81959501    1.0790912    2.8634827    2.8196908 
   59400         8242    51.920238   0.81770997    1.0829026    2.8122548    2.8045529 
   59500         8247    51.951731   0.81820603    1.0803059    2.8168466     2.803008 
   59600         8255    51.918365   0.81899973    1.0755524    2.7944504    2.8324642 
   59700         8258    51.914913   0.81929737    1.0820819    2.8380862    2.7879795 
   59800         8258    51.912571   0.81929737    1.0878565    2.7289192    2.7676036 
   59900         8267    51.913935   0.82019028    1.0788532    2.9401072    2.8318454 
   60000         8279    51.920482   0.82138083    1.0814691     2.971979    2.8101673 
   60100         8275    51.911118   0.82098398    1.0854823    2.8628745    2.8019377 
   60200         8245    51.917396    0.8180076    1.0790206    2.8054135    2.8244365 
   60300         8237    51.930563    0.8172139    1.0777854    2.8769763    2.8487208 
   60400         8208    51.928531   0.81433674    1.0721776    2.7981191    2.8705498 
   60500         8256    51.919209   0.81909894    1.0847838    2.8116451    2.8074656 
   60600         8242    51.936656   0.81770997    1.0802574    2.7769639    2.8311608 
   60700         8246    51.945589   0.81810682    1.0813979    2.7720723    2.8218438 
   60800         8238    51.934475   0.81731312    1.0831247    2.7784303    2.8145114 
   60900         8244    51.936338   0.81790839    1.0786635    2.8216126    2.8439962 
   61000         8257    51.934258   0.81919816    1.0838373    2.7833071    2.8264819 
   61100         8261    51.878492   0.81959501    1.0756614     2.841213    2.8788206 
   61200         8262    51.891196   0.81969422    1.0878519    2.7723698    2.7705174 
   61300         8320    51.919712   0.82544855    1.0840845    3.0139981    2.8288557 
   61400         8311    51.899963   0.82455563     1.084198    2.8794451    2.8311604 
   61500         8284     51.90691   0.82187689    1.0804496    2.9731263    2.8418729 
   61600         8264    51.957498   0.81989264    1.0827987     2.811557    2.8154852 
   61700         8265    51.960725   0.81999186    1.0816486    2.7996715     2.833504 
   61800         8251    51.915932   0.81860288    1.0838071    2.8128794    2.7977235 
   61900         8259    51.940746   0.81939658    1.0816032    2.8049331    2.8439143 
   62000         8278    51.920111   0.82128162    1.0816582    2.8845236    2.8251619 
   62100         8268     51.89606   0.82028949    1.0822108     2.782035    2.8391539 
   62200         8268    51.956019   0.82028949    1.0802228    2.7866932    2.8235507 
   62300         8262    51.907062   0.81969422    1.0809064     2.816311    2.8296677 
   62400         8257    51.926308   0.81919816     1.080734    2.7513226     2.812429 
   62500         8252    51.948808   0.81870209    1.0866409    2.8028661    2.7902781 
   62600         8248    51.927632   0.81830524    1.0834865    2.8052875     2.822939 
   62700         8270    51.911928   0.82048792    1.0773039    2.8367712    2.8624048 
   62800         8281    51.869987   0.82157926    1.0848782    2.9371607     2.821744 
   62900         8265    51.916801   0.81999186    1.0826571    2.9085738    2.8456356 
   63000         8282    51.912626   0.82167847    1.0798338    2.9722804    2.8721779 
   63100         8269    51.932392   0.82038871    1.0838152     2.925422    2.8349116 
   63200         8287    51.919864   0.82217453    1.0844819    2.8672515    2.8243293 
   63300         8254    51.879464   0.81890052    1.0860469    2.8917683    2.8256717 
   63400         8258    51.934606   0.81929737    1.0780631    2.8271462    2.8705709 
   63500         8237     51.95945    0.8172139    1.0841265    2.7790957    2.8481777 
   63600         8242      51.9023   0.81770997    1.0851496    2.7072884    2.8538664 
   63700         8279    51.897471   0.82138083    1.0869132    2.8433441    2.8310274 
   63800         8259    51.952447   0.81939658    1.0892085    2.8202903    2.8238913 
   63900         8264    51.929813   0.81989264    1.0862543    2.8489971    2.8334155 
   64000         8271    51.955536   0.82058713    1.0846577    2.8395383    2.8553017 
   64100         8268    51.954328   0.82028949    1.0878593    2.8231429    2.8383068 
   64200         8280    51.937102   0.82148004    1.0909803    2.7887302    2.8359887 
   64300         8275     51.91854   0.82098398    1.0873037    2.9071634    2.8416394 
   64400         8279     51.97002   0.82138083    1.0857698     2.887179    2.8297933 
   64500         8259    51.897953   0.81939658    1.0872452    2.8712529    2.8429686 
   64600         8246    51.907805   0.81810682    1.0853085    2.8616045    2.8558148 
   64700         8228    51.925604   0.81632099    1.0910124    2.7819022    2.8255876 
   64800         8233    51.905438   0.81681705    1.0848185    2.8545518    2.8924532 
   64900         8244     51.92951   0.81790839    1.0915027    2.7778234    2.8417043 
   65000         8262    51.954139   0.81969422    1.0898276    2.8460773    2.8571388 
   65100         8274    51.900426   0.82088477    1.0839673    2.9906665    2.8798053 
   65200         8285    51.950451   0.82197611    1.0829108    2.9407494    2.8896524 
   65300         8254    51.917931   0.81890052    1.0889944    2.8830249    2.8420539 
   65400         8259    51.909517   0.81939658    1.0857477    2.8707401    2.8772383 
   65500         8274    51.893559   0.82088477    1.0881637    2.9167772    2.8726879 
   65600         8290    51.906221   0.82247217    1.0904294    2.9108168    2.8651254 
   65700         8244    51.943243   0.81790839    1.0907233    2.8137894    2.8532454 
   65800         8272    51.920929   0.82068634    1.0857541    2.9394178    2.8883787 
   65900         8279    51.926833   0.82138083     1.085226    2.9372957    2.8785183 
   66000         8276    51.927777   0.82108319    1.0882076    2.8780452    2.8550134 
   66100         8264     51.88036   0.81989264    1.0906561    2.8345577    2.8518687 
   66200         8270    51.915987   0.82048792    1.0923246    2.8747438    2.8623045 
   66300         8258    51.940682   0.81929737    1.0891687    2.8985797     2.854049 
   66400         8249    51.956756   0.81840445    1.0934128    2.7764327     2.837703 
   66500         8244     51.93249   0.81790839    1.0929204    2.7800036    2.8474373 
   66600         8256    51.930142   0.81909894    1.0918389    2.8150491    2.8450984 
   66700         8253    51.864525   0.81880131    1.0900812    2.8590396    2.8613994 
   66800         8256    51.932172   0.81909894    1.0955693    2.7935353    2.8502371 
   66900         8226    51.920625   0.81612257    1.0938514    2.6743653    2.8572549 
   67000         8239    51.924472   0.81741233    1.0954775    2.7655422    2.8230386 
   67100         8226    51.919548   0.81612257    1.0905193    2.8508111    2.8749784 
   67200         8259    51.868397   0.81939658    1.0843842    2.9981209    2.9224682 
   67300         8264    51.941369   0.81989264    1.0878813    2.8955303    2.8663004 
   67400         8245    51.922704    0.8180076    1.0910112     2.896614     2.852651 
   67500         8269    51.930186   0.82038871    1.0915516    2.9446838    2.8599638 
   67600         8242    51.927946   0.81770997    1.0892019    2.8647303    2.8692282 
   67700         8243    51.888671   0.81780918    1.0843946    2.7891472    2.9145333 
   67800         8211    51.888879   0.81463438    1.0931849    2.7681092    2.8586485 
   67900         8223    51.953611   0.81582493    1.0915044    2.7816898    2.8625484 
   68000         8241    51.920897   0.81761075    1.0884561    2.8905457    2.8715615 
   68100         8290    51.948854   0.82247217    1.0897819    3.0250045    2.8668178 
   68200         8265    51.919135   0.81999186    1.0894115    2.9012944    2.8723669 
   68300         8241    51.935719   0.81761075     1.085792    2.8853694    2.8762973 
   68400         8256    51.922676   0.81909894    1.0878555    2.8775906    2.8447551 
   68500         8270    51.926895   0.82048792    1.0953424     2.841073    2.8303502 
   68600         8276    51.883725   0.82108319    1.0858134    2.9816491    2.8758273 
   68700         8290    51.936407   0.82247217    1.0909054    2.9517192    2.8497482 
   68800         8275    51.942476   0.82098398    1.0899275    2.8564727     2.850463 
   68900         8270    51.935179   0.82048792    1.0860594    2.9457112    2.8969967 
   69000         8250    51.931531   0.81850367    1.0859047    2.8430347    2.8864058 
   69100         8237       51.949    0.8172139    1.0873486    2.8238734    2.8688443 
   69200         8274    51.906124   0.82088477    1.0893874    2.8411004     2.851892 
   69300         8272    51.941259   0.82068634    1.0895488    2.9757801     2.836831 
   69400         8231     51.93903   0.81661863    1.0875825    2.9800605    2.8749312 
   69500         8240    51.931592   0.81751154    1.0892671    2.7667009    2.8745601 
   69600         8222    51.927498   0.81572572    1.0914642    2.8388973     2.839675 
   69700         8231    51.923523   0.81661863    1.0901652    2.8160834    2.8542076 
   69800         8263    51.933564   0.81979343    1.0912462    2.7627105     2.839395 
   69900         8263     51.91615   0.81979343    1.0873317    2.9166067     2.878254 
   70000         8268    51.929808   0.82028949    1.0936459    2.8319737    2.8241992 
   70100         8281    51.938937   0.82157926    1.0851075    2.9083372    2.8743882 
   70200         8279    51.938729   0.82138083    1.0921687    2.9683324    2.8426371 
   70300         8272    51.921205   0.82068634    1.0889882    3.0161897     2.884115 
   70400         8262    51.914683   0.81969422     1.088677    2.8735473    2.8614719 
   70500         8220    51.932696   0.81552729     1.090419    2.7886598    2.8663588 
   70600         8235    51.866871   0.81701548    1.0882218    2.7679269    2.8825342 
   70700         8212     51.90174   0.81473359    1.0900739     2.785335    2.8630313 
   70800         8234      51.9283   0.81691627    1.0874653    2.8122039    2.8671153 
   70900         8246    51.934773   0.81810682     1.089658    2.9121318    2.8616686 
   71000         8265    51.907884   0.81999186    1.0915777    2.7767143    2.8557329 
   71100         8217    51.914454   0.81522965    1.0932107    2.7488425    2.8407662 
   71200         8255     51.92526   0.81899973    1.0897015    2.7104152    2.8489734 
   71300         8284    51.931495   0.82187689    1.0891805    2.8764917    2.8607749 
   71400         8243    51.912584   0.81780918    1.0895582    2.8645307    2.8578596 
   71500         8258    51.934507   0.81929737    1.0895495    2.8698923     2.866738 
   71600         8274    51.925094   0.82088477    1.0902859    2.9151034    2.8599942 
   71700         8266    51.945575   0.82009107    1.0952596     2.942634     2.830655 
   71800         8270    51.936424   0.82048792    1.0897355    2.9941054    2.8595468 
   71900         8270    51.918556   0.82048792    1.0915583    2.8839754     2.857335 
   72000         8270    51.919949   0.82048792    1.0907138    2.8805189    2.8741817 
   72100         8259    51.932885   0.81939658    1.0897274    2.9250974    2.8692242 
   72200         8243    51.936069   0.81780918    1.0918302    2.8694275    2.8475811 
   72300         8236    51.930476   0.81711469    1.0882337     2.844326    2.8882628 
   72400         8277    51.917773   0.82118241    1.0881591    2.9482179    2.8897842 
   72500         8230    51.924926   0.81651942    1.0857227    2.8544022     2.911085 
   72600         8248    51.912181   0.81830524    1.0898466    2.9456717    2.8577846 
   72700         8278    51.902874   0.82128162    1.0920815      3.01795    2.8489404 
   72800         8262    51.892729   0.81969422    1.0900462    2.8786754    2.8687208 
   72900         8238    51.912719   0.81731312    1.0927646    2.8853916    2.8553398 
   73000         8263    51.923588   0.81979343    1.0885907    2.9144985    2.8755984 
   73100         8216    51.901361   0.81513044    1.0918031    2.8485004    2.8551187 
   73200         8216    51.905351   0.81513044     1.092543    2.8552369    2.8599508 
   73300         8240     51.91827   0.81751154    1.0915255    2.8233262    2.8703596 
   73400         8245       51.934    0.8180076     1.090817    2.8659527    2.8842949 
   73500         8222    51.939811   0.81572572    1.0904943    2.8360636    2.8646823 
   73600         8248    51.934741   0.81830524    1.0889884    2.8297064    2.8701305 
   73700         8268    51.920747   0.82028949    1.0873516    2.9790253    2.9102106 
   73800         8279    51.949696   0.82138083    1.0947119    2.9695514    2.8452896 
   73900         8284    51.925416   0.82187689    1.0907181    2.9102453    2.8775468 
   74000         8288    51.900708   0.82227374    1.0911593    2.9789174    2.8776952 
[...]
 1185300 -0.0037495108   0.81899973    1.1261646    3.0582359   -7.0931959    1.6923991   -7.0931959            0   -5.4007968 
 1185400 0.0026105319   0.81701548    1.1243138    3.0675209   -7.0924804     1.691478   -7.0924804            0   -5.4010024 
 1185500 -0.010266039   0.81959501    1.1327359    3.0030925   -7.1060306    1.7036907   -7.1060306            0   -5.4023399 
 1185600 -0.026597177   0.81770997    1.1319729    3.0058198   -7.1046716    1.7016674   -7.1046716            0   -5.4030043 
 1185700 -0.016201738   0.81860288    1.1277441    3.0171615   -7.0982402    1.6925765   -7.0982402            0   -5.4056637 
 1185800  0.012124825   0.81761075    1.1238699    3.0440833   -7.0954203    1.6909503   -7.0954203            0     -5.40447 
 1185900  0.026534306   0.81651942     1.127274    3.0335505   -7.0996327    1.6960029   -7.0996327            0   -5.4036298 
 1186000 0.0052102361   0.81542808    1.1287828     3.005178   -7.1012455    1.7000574   -7.1012455            0   -5.4011882 
 1186100 -0.0066930497   0.81612257    1.1242011    3.0267258   -7.0933636    1.6961196   -7.0933636            0   -5.3972441 
 1186200 -0.032697157   0.81413831     1.127997    3.0081909   -7.1011146    1.7007774   -7.1011146            0   -5.4003372 
 1186300 -0.047064084    0.8132454    1.1259998    2.9994258   -7.0987918    1.6985343   -7.0987918            0   -5.4002575 
 1186400  0.012204165   0.81711469    1.1254819    3.0036777   -7.0988362    1.6953498   -7.0988362            0   -5.4034864 
 1186500   0.04434706   0.81681705    1.1245901     3.005752   -7.0964192    1.6925004   -7.0964192            0   -5.4039187 
 1186600  0.036090545    0.8156265    1.1278447    3.0049102   -7.1003773    1.6985201   -7.1003773            0   -5.4018572 
 1186700 -0.00076740965   0.81572572      1.12513    3.0183503   -7.0958389    1.6913391   -7.0958389            0   -5.4044998 
 1186800 -0.023183325   0.81522965    1.1233401    3.0408034   -7.0950771    1.6900423   -7.0950771            0   -5.4050348 
 1186900 -0.017703407   0.81899973     1.129788    3.0036116   -7.1024704    1.7034168   -7.1024704            0   -5.3990536 
 1187000 -0.024871961   0.81592414    1.1261941    3.0422263   -7.0961206    1.6973353   -7.0961206            0   -5.3987853 
 1187100 -0.0099214044   0.81552729     1.125894     3.028675   -7.0967205    1.6967105   -7.0967205            0   -5.4000101 
 1187200 -0.005318145   0.81552729    1.1287146    3.0268369   -7.0986422    1.6986391   -7.0986422            0    -5.400003 
 1187300 -0.005136502   0.82019028    1.1247064    3.0447095   -7.0932073    1.6924126   -7.0932073            0   -5.4007947 
 1187400  0.019400907   0.82138083    1.1242145    3.0585785   -7.0929463    1.6950849   -7.0929463            0   -5.3978614 
 1187500  0.013035798   0.81691627    1.1341971    2.9805613   -7.1037017     1.706959   -7.1037017            0   -5.3967427 
 1187600 -0.031027935   0.81463438    1.1271978    3.0412811   -7.0923364    1.6964424   -7.0923364            0    -5.395894 
 1187700  -0.01916943    0.8148328    1.1264632    3.0488604   -7.0949357    1.6950519   -7.0949357            0   -5.3998838 
 1187800 -0.00044040856   0.81651942     1.130539    3.0361297   -7.0964919    1.6989624   -7.0964919            0   -5.3975295 
 1187900 -0.0012036451   0.81899973     1.127473    3.0435309   -7.0944933    1.6965467   -7.0944933            0   -5.3979465 
 1188000 -0.020235153   0.81542808    1.1307875    3.0225036     -7.09994    1.7008623     -7.09994            0   -5.3990777 
 1188100  0.017736488   0.81830524    1.1338816    3.0018772   -7.1017853    1.7057771   -7.1017853            0   -5.3960082 
 1188200  0.035074192   0.81820603      1.12471    3.0411899   -7.0897762    1.6922337   -7.0897762            0   -5.3975426 
 1188300  0.028675705   0.81761075    1.1239961    3.0583562   -7.0893299    1.6929633   -7.0893299            0   -5.3963667 
 1188400 0.0007663577   0.81522965     1.131249    3.0439592   -7.1014532    1.7047095   -7.1014532            0   -5.3967437 
 1188500 -0.029503729   0.81671784    1.1285662    3.0421089    -7.095803    1.7018586    -7.095803            0   -5.3939445 
 1188600  0.014195209   0.81711469    1.1262374    3.0582104   -7.0914482    1.6941293   -7.0914482            0    -5.397319 
 1188700 0.0010059452   0.81582493    1.1296937    3.0468387   -7.0963778    1.6991073   -7.0963778            0   -5.3972705 
 1188800 -0.015031728   0.81810682    1.1303795    3.0204822   -7.0964639    1.6988556   -7.0964639            0   -5.3976083 
 1188900 -0.0067120176   0.81790839    1.1302176    3.0258958   -7.0981611    1.7034574   -7.0981611            0   -5.3947037 
 1189000  -0.02899321   0.81354304    1.1272836    3.0510889   -7.0928133    1.6962347   -7.0928133            0   -5.3965787 
 1189100 -0.0038441825    0.8148328    1.1256464    3.0678519   -7.0898378    1.6947431   -7.0898378            0   -5.3950947 
 1189200  0.038802216    0.8148328    1.1297509    3.0461675   -7.0944254    1.6994654   -7.0944254            0     -5.39496 
 1189300  0.023717101   0.81880131    1.1309656    3.0253588   -7.0969995    1.7017904   -7.0969995            0    -5.395209 
 1189400 -0.0010716449   0.81880131    1.1266208     3.044406   -7.0936456    1.6983246   -7.0936456            0    -5.395321 
 1189500 -0.029208593   0.81632099    1.1301405    3.0331654   -7.0973781    1.7008196   -7.0973781            0   -5.3965585 
 1189600 -0.0055279947   0.81651942    1.1323544    3.0265129   -7.0996497    1.7034963   -7.0996497            0   -5.3961535 
 1189700 -0.0027624874   0.81473359    1.1249906     3.040151   -7.0908532    1.6894984   -7.0908532            0   -5.4013549 
 1189800 0.0074022541   0.81810682    1.1280591    3.0273083   -7.0984578    1.6961061   -7.0984578            0   -5.4023517 
 1189900 0.0045993336   0.81989264    1.1244216    3.0577111   -7.0942577    1.6895444   -7.0942577            0   -5.4047133 
 1190000 -0.017750228   0.81860288     1.133813    3.0061553   -7.1035623    1.7013701   -7.1035623            0   -5.4021922 
 1190100 -0.015104679   0.81741233    1.1270609    3.0358658   -7.0945913    1.6941844   -7.0945913            0   -5.4004069 
 1190200 0.0073370354   0.81820603    1.1260594    3.0644199   -7.0912917     1.694634   -7.0912917            0   -5.3966577 
 1190300 0.0099796529   0.81929737    1.1302796    3.0386977   -7.0967032    1.6962888   -7.0967032            0   -5.4004144 
 1190400 0.0084904655   0.82019028    1.1270021    3.0417485   -7.0939119    1.6948031   -7.0939119            0   -5.3991088 
 1190500  0.014985304   0.81622178    1.1280833    3.0450988   -7.0943025    1.6970858   -7.0943025            0   -5.3972167 
 1190600 -0.018853566   0.81612257    1.1287769    3.0297368   -7.0918509    1.6985483   -7.0918509            0   -5.3933026 
 1190700  -0.03517336   0.81731312    1.1332328    3.0256239   -7.0991197    1.7094148   -7.0991197            0   -5.3897049 
 1190800 -0.0025358018   0.81602335    1.1283499    3.0679039   -7.0900717    1.6969345   -7.0900717            0   -5.3931372 
 1190900  0.012750954   0.81711469    1.1287118    3.0593302   -7.0894462     1.701033   -7.0894462            0   -5.3884132 
 1191000  0.019264562   0.81413831    1.1242516    3.0979724   -7.0845826    1.6957265   -7.0845826            0   -5.3888561 
 1191100 -0.0093069228   0.81909894    1.1304206    3.0552733   -7.0919863    1.7026539   -7.0919863            0   -5.3893324 
 1191200 -0.0075940569   0.81919816    1.1328262    3.0252552   -7.0969249    1.7091008   -7.0969249            0   -5.3878241 
 1191300  0.010564708   0.82068634    1.1328738    3.0226444   -7.0946091    1.7058736   -7.0946091            0   -5.3887355 
 1191400 -0.025629299   0.81671784    1.1306833    3.0458229   -7.0900216    1.7017083   -7.0900216            0   -5.3883133 
 1191500 -0.018791213   0.81959501    1.1296339    3.0592754   -7.0884916    1.6999589   -7.0884916            0   -5.3885327 
 1191600 0.0050259246   0.81890052    1.1339303    3.0266888   -7.0969707    1.7057892   -7.0969707            0   -5.3911815 
 1191700 -0.0028377221   0.81651942    1.1306333    3.0398032   -7.0942024     1.701556   -7.0942024            0   -5.3926464 
 1191800 -0.0082656246   0.81770997    1.1298271    3.0482569    -7.091743    1.7002927    -7.091743            0   -5.3914504 
 1191900 0.0018050235   0.81850367    1.1276972    3.0708759   -7.0882756    1.6983826   -7.0882756            0    -5.389893 
 1192000  0.016398634   0.81850367    1.1342468    3.0215789   -7.0957123    1.7042805   -7.0957123            0   -5.3914318 
 1192100  0.019193248    0.8180076     1.132295    3.0502819   -7.0927835    1.7017171   -7.0927835            0   -5.3910664 
 1192200 0.0021735821   0.81810682    1.1324602    3.0450869   -7.0937604    1.7007599   -7.0937604            0   -5.3930004 
 1192300 -0.026757193   0.81513044    1.1316081    3.0649427   -7.0955633    1.7034286   -7.0955633            0   -5.3921347 
 1192400 -0.023692704   0.81522965    1.1370371    3.0242029   -7.0986839    1.7083755   -7.0986839            0   -5.3903084 
 1192500  0.026162469   0.81731312    1.1322258     3.044883   -7.0930128    1.7068549   -7.0930128            0    -5.386158 
 1192600  0.025805681   0.81612257    1.1293656    3.0760065   -7.0871234    1.6993302   -7.0871234            0   -5.3877932 
 1192700 0.0097698272   0.81840445    1.1320596    3.0436137   -7.0929157     1.704796   -7.0929157            0   -5.3881197 
 1192800 -0.022882004    0.8164202     1.129847     3.072829   -7.0886783    1.7008176   -7.0886783            0   -5.3878608 
 1192900 0.00066983114   0.81751154    1.1288225     3.061948    -7.086293    1.7008118    -7.086293            0   -5.3854812 
 1193000  -0.01526294   0.81860288    1.1327321    3.0476837   -7.0919914    1.7047723   -7.0919914            0   -5.3872191 
 1193100 -0.013539697   0.81890052    1.1286303    3.0877248    -7.089321    1.7027105    -7.089321            0   -5.3866104 
 1193200 -0.011767556   0.81939658       1.1319    3.0691404   -7.0888095    1.6998357   -7.0888095            0   -5.3889738 
 1193300 -0.00084968409   0.82108319    1.1301935    3.0734423   -7.0891232     1.700805   -7.0891232            0   -5.3883182 
 1193400  0.015583328   0.82167847    1.1343249    3.0357122   -7.0967395    1.7080335   -7.0967395            0    -5.388706 
 1193500 0.0014480592   0.82009107    1.1307469    3.0645405   -7.0906169    1.7028404   -7.0906169            0   -5.3877765 
 1193600 -0.0077009419   0.82048792    1.1280273    3.0776643   -7.0848204    1.6983495   -7.0848204            0   -5.3864709 
 1193700 -0.025868769   0.81671784    1.1328131    3.0424235   -7.0935016    1.7054114   -7.0935016            0   -5.3880903 
 1193800 -0.045499494   0.81542808    1.1290016    3.0614289   -7.0879916    1.6997868   -7.0879916            0   -5.3882048 
 1193900 -0.00071231678   0.81344383      1.12893    3.0672736   -7.0881022    1.6997566   -7.0881022            0   -5.3883456 
 1194000  0.029186692   0.81532887    1.1290883    3.0657478   -7.0877762    1.6994273   -7.0877762            0   -5.3883489 
 1194100  0.050814894    0.8164202    1.1313718    3.0423504   -7.0900491    1.6996709   -7.0900491            0   -5.3903782 
 1194200  0.025246023   0.81453516    1.1313418    3.0375964   -7.0929956    1.7025555   -7.0929956            0   -5.3904401 
 1194300 -0.014012929   0.81830524    1.1313175    3.0489501   -7.0917656     1.703856   -7.0917656            0   -5.3879095 
 1194400 -0.041841426    0.8180076    1.1280489    3.0640478   -7.0895153    1.6991072   -7.0895153            0   -5.3904081 
 1194500 -0.028459566   0.81711469    1.1333492    3.0360719   -7.0964749    1.7054566   -7.0964749            0   -5.3910182 
 1194600  0.012197169   0.81999186    1.1279467    3.0660247   -7.0885448    1.6986317   -7.0885448            0   -5.3899131 
 1194700  0.048246155   0.81860288    1.1285484    3.0583481   -7.0889792    1.6976113   -7.0889792            0   -5.3913679 
 1194800 -0.0020988231   0.81919816    1.1273889    3.0777665   -7.0898665    1.6966243   -7.0898665            0   -5.3932422 
 1194900 -0.0087586787   0.81939658    1.1292528    3.0581048   -7.0918044     1.701984   -7.0918044            0   -5.3898203 
 1195000 -0.028409428   0.81592414    1.1309381    3.0648994   -7.0964346    1.7049525   -7.0964346            0   -5.3914821 
 1195100 -0.019938143   0.81780918    1.1295133    3.0434124   -7.0953974    1.7017866   -7.0953974            0   -5.3936109 
 1195200  0.013094377   0.81770997    1.1290907    3.0479576   -7.0913463    1.6969906   -7.0913463            0   -5.3943557 
 1195300 0.00087549012   0.81691627    1.1322914    3.0276151    -7.096794    1.7037005    -7.096794            0   -5.3930935 
 1195400 -0.014494261   0.81870209    1.1304882    3.0343205   -7.0943747    1.7024099   -7.0943747            0   -5.3919648 
 1195500  0.013144027   0.81691627    1.1335208    3.0479625   -7.0974028    1.7013362   -7.0974028            0   -5.3960667 
 1195600   0.02403061   0.81374146    1.1329842    3.0234432   -7.0981041    1.7011331   -7.0981041            0   -5.3969711 
 1195700 -0.014978948   0.81294776    1.1260784    3.0648463    -7.089468    1.6943427    -7.089468            0   -5.3951253 
 1195800  -0.01882574   0.81255091    1.1327216    3.0432896   -7.0942613    1.6984746   -7.0942613            0   -5.3957868 
 1195900 0.0021671937   0.81453516    1.1338332    3.0258998   -7.0989985    1.7014475   -7.0989985            0   -5.3975509 
 1196000 -0.011927895   0.81344383    1.1327819    3.0439114   -7.0962124    1.7026303   -7.0962124            0   -5.3935821 
 1196100 -0.001705924   0.81741233    1.1316269    3.0413442   -7.0936867    1.7023928   -7.0936867            0   -5.3912939 
 1196200  0.031531609   0.81572572    1.1276889    3.0805021     -7.08454     1.692917     -7.08454            0    -5.391623 
 1196300  0.016926742   0.81850367    1.1332999    3.0469187   -7.0939168    1.7038403   -7.0939168            0   -5.3900765 
 1196400 -0.013543525   0.82098398     1.128986     3.068789   -7.0861945    1.6986575   -7.0861945            0    -5.387537 
 1196500 -0.015175553   0.82128162    1.1358569    3.0399692   -7.0967818    1.7070923   -7.0967818            0   -5.3896896 
 1196600 -0.00026666588   0.82217453    1.1321796    3.0595728   -7.0924956    1.7032429   -7.0924956            0   -5.3892527 
 1196700 -0.025238875    0.8180076    1.1344886    3.0316653   -7.0937178    1.7071004   -7.0937178            0   -5.3866174 
 1196800 -0.030122536   0.81850367    1.1340169    3.0481829   -7.0914409     1.707803   -7.0914409            0   -5.3836379 
 1196900 -0.010869822   0.81691627    1.1356423    3.0464774   -7.0921163    1.7072809   -7.0921163            0   -5.3848354 
 1197000  0.039631096    0.8156265    1.1328576    3.0460327   -7.0925942    1.7074703   -7.0925942            0   -5.3851239 
 1197100  0.027865853   0.81830524    1.1354612     3.048141   -7.0950735    1.7078842   -7.0950735            0   -5.3871893 
 1197200 -0.014776655   0.81463438     1.134088    3.0219047   -7.0931417    1.7037412   -7.0931417            0   -5.3894006 
 1197300 -0.028249225   0.81632099    1.1346361    3.0244579    -7.095244    1.7038194    -7.095244            0   -5.3914246 
 1197400 -0.014018538   0.81423753    1.1348283    3.0534688   -7.0960302    1.7031659   -7.0960302            0   -5.3928643 
 1197500  0.031674733   0.81473359    1.1276058    3.0891486   -7.0886064    1.6956207   -7.0886064            0   -5.3929857 
 1197600   0.01658454   0.81612257    1.1308578    3.0516185   -7.0934669    1.7028442   -7.0934669            0   -5.3906227 
 1197700  0.012092625   0.81671784    1.1279186    3.0802257   -7.0889567    1.6979132   -7.0889567            0   -5.3910434 
 1197800 -0.0047326063   0.81602335    1.1315956    3.0704989   -7.0937298    1.7010272   -7.0937298            0   -5.3927025 
 1197900 -0.0037145696   0.81552729    1.1310981    3.0472777   -7.0946604    1.7012308   -7.0946604            0   -5.3934297 
 1198000  0.017069922   0.81612257     1.128312     3.063889   -7.0894628    1.6967867   -7.0894628            0   -5.3926761 
 1198100  0.024233918   0.81701548    1.1342416     3.024258   -7.0995982    1.7065031   -7.0995982            0   -5.3930951 
 1198200   0.01296828   0.81780918    1.1353498    3.0294279   -7.0984297    1.7084247   -7.0984297            0   -5.3900049 
 1198300 -0.0085236424   0.81820603    1.1274924    3.0635224   -7.0864981    1.6956683   -7.0864981            0   -5.3908298 
 1198400 -0.037788865   0.81681705    1.1294802     3.067173   -7.0884806    1.6982828   -7.0884806            0   -5.3901979 
 1198500  0.002686759   0.81820603    1.1350571     3.025198    -7.094637    1.7054383    -7.094637            0   -5.3891987 
 1198600  0.027331205   0.81731312    1.1308586     3.051797   -7.0941165    1.7027935   -7.0941165            0    -5.391323 
 1198700  0.032811348   0.81661863    1.1326487    3.0353851   -7.0958453    1.7028612   -7.0958453            0    -5.392984 
 1198800  0.025095181   0.81840445    1.1300855    3.0485883   -7.0962422     1.699232   -7.0962422            0   -5.3970102 
 1198900 -0.039056928   0.81741233    1.1316294    3.0382819   -7.0941895    1.6965819   -7.0941895            0   -5.3976076 
 1199000 -0.0052610225   0.81602335    1.1264255    3.0656688    -7.090155    1.6939787    -7.090155            0   -5.3961763 
 1199100 -0.0035822751   0.81661863    1.1331293    3.0189895   -7.0999491    1.7038931   -7.0999491            0    -5.396056 
 1199200 -0.0082999066   0.81691627    1.1317074    3.0300874   -7.0984467    1.7014835   -7.0984467            0   -5.3969632 
 1199300 -0.00067336662   0.81205485    1.1293827    3.0318625   -7.0962165     1.696871   -7.0962165            0   -5.3993454 
 1199400 -0.0019488539   0.81136036    1.1288633    3.0458968   -7.0965464    1.6966062   -7.0965464            0   -5.3999402 
 1199500  0.019184984    0.8132454     1.127572    3.0607004   -7.0939889    1.6960999   -7.0939889            0    -5.397889 
 1199600  0.030751317   0.81532887    1.1318412    3.0328308    -7.097304     1.702782    -7.097304            0    -5.394522 
 1199700  0.032311335   0.81870209    1.1338165    3.0109193   -7.1006839    1.7028071   -7.1006839            0   -5.3978768 
 1199800 -0.007419362   0.81860288    1.1255734    3.0625724   -7.0901272    1.6944788   -7.0901272            0   -5.3956484 
 1199900 -0.049965003   0.81850367     1.124374    3.0695244   -7.0893583    1.6960422   -7.0893583            0   -5.3933162 
 1200000 -0.035297915   0.82058713    1.1286612    3.0546142   -7.0917935    1.6961908   -7.0917935            0   -5.3956027 
Loop time of 4895.81 on 16 procs for 1000000 steps with 47785 atoms

Performance: 88238.763 tau/day, 204.256 timesteps/s
99.9% CPU use with 16 MPI tasks x no OpenMP threads

MPI task timing breakdown:
Section |  min time  |  avg time  |  max time  |%varavg| %total
---------------------------------------------------------------
Pair    | 2613.6     | 2689.8     | 2848.4     | 106.4 | 54.94
Neigh   | 667.75     | 678.3      | 684.02     |  16.9 | 13.85
Comm    | 180.96     | 304.51     | 415.7      | 350.9 |  6.22
Output  | 5.0861     | 5.3165     | 5.5284     |   8.7 |  0.11
Modify  | 1148.7     | 1186.6     | 1242.4     | 106.8 | 24.24
Other   |            | 31.31      |            |       |  0.64

Nlocal:    2986.56 ave 3028 max 2953 min
Histogram: 3 0 2 1 3 2 3 0 1 1
Nghost:    5036.75 ave 5077 max 5005 min
Histogram: 2 4 1 1 0 4 0 1 1 2
Neighs:    79998.6 ave 81982 max 78104 min
Histogram: 1 0 3 4 2 1 0 1 2 2

Total # of neighbors = 1279977
Ave neighs/atom = 26.7862
Neighbor list builds = 164253
Dangerous builds = 0
print "# --- COUPLED RUN END --- #"
# --- COUPLED RUN END --- #
#write_restart restart.nemd.*.mpiio
Total wall time: 1:31:30
