/*--------------------------------*- C++ -*----------------------------------*\
| =========                 |                                                 |
| \\      /  F ield         | OpenFOAM: The Open Source CFD Toolbox           |
|  \\    /   O peration     | Version:  3.0.1                                 |
|   \\  /    A nd           | Web:      www.OpenFOAM.org                      |
|    \\/     M anipulation  |                                                 |
\*---------------------------------------------------------------------------*/
FoamFile
{
    version     2.0;
    format      ascii;
    class       surfaceScalarField;
    location    "325";
    object      phi;
}
// * * * * * * * * * * * * * * * * * * * * * * * * * * * * * * * * * * * * * //

dimensions      [0 3 -1 0 0 0 0];

internalField   nonuniform List<scalar> 
1072
(
0.10680977
6.9031821e-08
-2.7289911e-08
0.10680957
4.4488564e-07
-8.0738701e-09
0.10680967
1.7790326e-08
2.8726287e-09
-1.9728389e-07
2.0672083e-08
0.033979935
-1.6671851e-07
-4.4526482e-08
0.033980199
1.6750649e-07
-6.8102768e-09
0.03397971
2.9614321e-07
-1.6211685e-08
4.9291292e-08
4.6722223e-09
-0.0055246632
-4.3917852e-07
-3.1164907e-08
-0.005524333
-1.502006e-07
2.9543241e-09
-0.0055247816
5.9873481e-07
-2.600334e-08
3.9066674e-07
-7.2428439e-09
-0.021209204
-9.71267e-07
-2.3195812e-08
-0.021208546
-7.3360063e-07
1.020219e-08
-0.021209249
1.1577823e-06
-2.7581887e-08
1.0017061e-06
-1.246125e-08
-0.022218039
-1.261195e-06
-1.9890163e-08
-0.022217573
-1.1223048e-06
1.2790484e-08
-0.022217979
1.4757448e-06
-2.5467319e-08
1.4079669e-06
-1.3238863e-08
-0.015387374
-1.2253202e-06
-1.8685772e-08
-0.015387275
-1.1662697e-06
1.1306147e-08
-0.015387293
1.4667124e-06
-2.1074173e-08
1.4591752e-06
-1.1058871e-08
-0.0041094617
-9.9452251e-07
-1.7609259e-08
-0.0041096388
-9.6716458e-07
7.5759577e-09
-0.0041094011
1.2539589e-06
-1.6062489e-08
1.2603655e-06
-7.5518001e-09
0.010160266
-6.8777662e-07
-1.5999966e-08
0.010159947
-6.5708838e-07
3.8483031e-09
0.010160301
9.5276797e-07
-1.1493305e-08
9.4341617e-07
-4.1893848e-09
0.026702084
-3.6349861e-07
-1.4125275e-08
0.026701712
-3.1308958e-07
6.4778364e-10
0.026702101
6.2283082e-07
-7.786169e-09
5.8571602e-07
-1.6673801e-09
0.045133433
-5.1217772e-08
-1.1965132e-08
0.045133055
2.5774491e-08
-1.6990059e-09
0.045133434
2.9713801e-07
-4.9568926e-09
2.2804552e-07
-1.8023699e-10
0.065328317
2.2942437e-07
-9.6280424e-09
0.065327962
3.3698667e-07
-3.17087e-09
0.065328304
-1.3881695e-09
-2.8547451e-09
-1.0437084e-07
2.6038959e-10
0.087360888
4.6743582e-07
-7.1198241e-09
0.087360575
6.0856757e-07
-3.9036539e-09
0.087360865
-2.5900246e-07
-1.3081931e-09
-3.9742061e-07
5.1019563e-11
0.11142881
6.6083383e-07
-4.8458588e-09
0.11142854
8.3789944e-07
-4.0821434e-09
0.11142877
-4.7148972e-07
-1.9285684e-10
-6.4704557e-07
-3.7595669e-10
0.13778594
8.136928e-07
-2.9183938e-09
0.13778571
1.0290358e-06
-3.8866786e-09
0.13778589
-6.4155323e-07
6.220215e-10
-8.5629773e-07
-9.3733425e-10
0.16670225
9.3242211e-07
-1.3830469e-09
0.16670206
1.1889407e-06
-3.4686312e-09
0.1667022
-7.7491911e-07
1.225462e-09
-1.0316468e-06
-1.5050219e-09
0.19844835
1.0230767e-06
-2.3516559e-10
0.19844819
1.3244972e-06
-2.9413354e-09
0.19844829
-8.7747577e-07
1.6791025e-09
-1.1798823e-06
-1.9910113e-09
0.23329406
1.090233e-06
5.6271406e-10
0.23329392
1.4410512e-06
-2.3807588e-09
0.233294
-9.5397948e-07
2.0239674e-09
-1.3065334e-06
-2.3518938e-09
0.27151189
1.1369651e-06
1.0656652e-09
0.27151177
1.5421789e-06
-1.8285357e-09
0.27151182
-1.0078804e-06
2.2872945e-09
-1.4155364e-06
-2.5785987e-09
0.31338034
1.1652803e-06
1.3345309e-09
0.31338024
1.6300728e-06
-1.31177e-09
0.31338027
-1.0416225e-06
2.4709899e-09
-1.5095305e-06
-2.683806e-09
0.3591853
1.1765782e-06
1.4276597e-09
0.35918521
1.7061546e-06
-8.8439593e-10
0.35918522
-1.0569966e-06
2.5947481e-09
-1.5902914e-06
-2.6911284e-09
0.40921975
1.1719508e-06
1.3960302e-09
0.40921968
1.7712241e-06
-4.9065634e-10
0.40921967
-1.0555488e-06
2.7041571e-09
-1.6590568e-06
-2.6272867e-09
0.46378246
1.1523253e-06
1.2815563e-09
0.46378239
1.8257921e-06
-1.4182177e-10
0.46378237
-1.0385367e-06
2.7871507e-09
-1.7166861e-06
-2.5171707e-09
0.52317628
1.1185017e-06
1.1170725e-09
0.52317622
1.8701043e-06
1.6620984e-10
0.52317618
-1.0070088e-06
2.8481687e-09
-1.7637024e-06
-2.3816478e-09
0.5877066
1.071151e-06
9.2728079e-10
0.58770656
1.9041248e-06
4.3810574e-10
0.58770651
-9.618178e-07
2.893785e-09
-1.8002783e-06
-2.2368688e-09
0.65767994
1.0108195e-06
7.3012619e-10
0.65767991
1.9275094e-06
6.7840283e-10
0.65767984
-9.0363743e-07
2.929847e-09
-1.8262186e-06
-2.0935699e-09
0.73340258
9.3795797e-07
5.3819417e-10
0.73340256
1.9395989e-06
8.9124359e-10
0.73340247
-8.3300438e-07
2.9607808e-09
-1.8409729e-06
-1.955422e-09
0.8151793
8.5297836e-07
3.5997575e-10
0.81517929
1.9394459e-06
1.0803333e-09
0.81517919
-7.503841e-07
2.9895202e-09
-1.843635e-06
-1.8440637e-09
0.90331188
7.5632747e-07
2.0079904e-10
0.90331188
1.9258683e-06
1.2489735e-09
0.90331178
-6.5625448e-07
3.0176037e-09
-1.8330558e-06
-1.7502871e-09
0.99809736
6.485669e-07
6.361071e-11
0.99809739
1.8975249e-06
1.4000926e-09
0.99809727
-5.5119219e-07
3.0454363e-09
-1.8079025e-06
-1.6761182e-09
1.099826
5.3044828e-07
-5.0376963e-11
1.099826
1.8529988e-06
1.5362685e-09
1.0998259
-4.3595267e-07
3.0725827e-09
-1.7667505e-06
-1.6219306e-09
1.2087788
4.0297505e-07
-1.4120349e-10
1.2087788
1.7908837e-06
1.6597381e-09
1.2087787
-3.1153557e-07
3.0980433e-09
-1.7081749e-06
-1.5870171e-09
1.3252249
2.6744607e-07
-2.0979543e-10
1.3252249
1.7098663e-06
1.7723998e-09
1.3252248
-1.792308e-07
3.1204861e-09
-1.6308368e-06
-1.5699464e-09
1.4494185
1.254786e-07
-2.576872e-10
1.4494186
1.6088017e-06
1.8758226e-09
1.4494184
-4.064323e-08
3.1384273e-09
-1.533562e-06
-1.5688433e-09
1.5815959
-2.0989592e-08
-2.8680759e-10
1.581596
1.4867819e-06
1.9712665e-09
1.5815958
1.0230402e-07
3.1503688e-09
-1.4154115e-06
-1.5815961e-09
1.7219719
-1.6971809e-07
-2.9931876e-10
1.7219721
1.3431984e-06
2.0597152e-09
1.7219719
2.4738718e-07
3.1548922e-09
-1.2757434e-06
-1.6070343e-09
1.870737
-3.1820041e-07
-2.974839e-10
1.8707372
1.1777985e-06
2.1419196e-09
1.870737
3.9211788e-07
3.1507247e-09
-1.1142744e-06
-1.6409022e-09
2.0280535
-4.6371679e-07
-2.8358117e-10
2.0280537
9.9073833e-07
2.2184506e-09
2.0280535
5.3379671e-07
3.1367794e-09
-9.311278e-07
-1.6824772e-09
2.1940526
-6.0340217e-07
-2.5982622e-10
2.1940528
7.826336e-07
2.2893286e-09
2.1940527
6.6958198e-07
3.1121728e-09
-7.2688472e-07
-1.7299917e-09
2.3688315
-7.3432713e-07
-2.2831911e-10
2.3688317
5.546066e-07
2.3558118e-09
2.3688316
7.9657166e-07
3.0762287e-09
-5.0263176e-07
-1.7818631e-09
2.5524501
-8.5358993e-07
-1.9100034e-10
2.5524503
3.0833597e-07
2.4177105e-09
2.5524502
9.1189678e-07
3.0284745e-09
-2.6000749e-07
-1.8367762e-09
2.7449288
-9.5841763e-07
-1.4961522e-10
2.744929
4.6103954e-08
2.4754102e-09
2.7449289
1.0128238e-06
2.9686248e-09
-1.2490622e-09
-1.8936781e-09
2.9462458
-1.0462739e-06
-1.0568119e-10
2.9462461
-2.2915493e-07
2.5293676e-09
2.946246
1.0968633e-06
2.8966813e-09
2.7075994e-07
-1.9517415e-09
3.1563357
-1.1149713e-06
-6.0461548e-11
3.156336
-5.1380471e-07
2.5801631e-09
3.1563359
1.1618825e-06
2.8124469e-09
5.5244123e-07
-2.0104814e-09
3.3750871
-1.162783e-06
-1.4943154e-11
3.3750874
-8.0345555e-07
2.6285392e-09
3.3750873
1.2062158e-06
2.7162423e-09
8.394675e-07
-2.0695608e-09
3.6023419
-1.188551e-06
3.0162757e-11
3.6023422
-1.0929098e-06
2.6754493e-09
3.6023422
1.2287699e-06
2.6083531e-09
1.1267055e-06
-2.1288924e-09
3.8378945
-1.1917838e-06
7.4388494e-11
3.8378948
-1.3761056e-06
2.7220955e-09
3.8378948
1.2291165e-06
2.4891749e-09
1.4081534e-06
-2.1885695e-09
4.0814912
-1.1727358e-06
1.1742083e-10
4.0814915
-1.6460595e-06
2.7699576e-09
4.0814915
1.2075618e-06
2.3592029e-09
1.6768735e-06
-2.2487832e-09
4.3328305
-1.132458e-06
1.5892677e-10
4.3328307
-1.8948116e-06
2.8207946e-09
4.3328308
1.165185e-06
2.2190213e-09
1.9249227e-06
-2.3096725e-09
4.5915636
-1.0728069e-06
1.9826403e-10
4.5915638
-2.1133811e-06
2.8765767e-09
4.5915639
1.103829e-06
2.0692777e-09
2.1432886e-06
-2.3710571e-09
4.8572956
-9.9639567e-07
2.3405761e-10
4.8572958
-2.2917465e-06
2.9392731e-09
4.8572958
1.0260302e-06
1.9105913e-09
2.321846e-06
-2.4320011e-09
5.1295868
-9.0647021e-07
2.6365763e-10
5.1295869
-2.4188756e-06
3.0103637e-09
5.129587
9.3486983e-07
1.7433623e-09
2.4493618e-06
-2.490157e-09
5.407955
-8.0669135e-07
2.8257665e-10
5.407955
-2.4828481e-06
3.0898669e-09
5.4079551
8.3373377e-07
1.5673848e-09
2.513597e-06
-2.5408579e-09
5.6918777
-7.0081079e-07
2.8415312e-10
5.6918777
-2.4711422e-06
3.1746045e-09
5.6918778
7.2597719e-07
1.3812332e-09
2.5015902e-06
-2.5759896e-09
5.9807954
-5.9224191e-07
2.5992832e-10
5.9807953
-2.3712018e-06
3.2553837e-09
5.9807954
6.1451291e-07
1.1815919e-09
2.4002632e-06
-2.5827907e-09
6.2741145
-4.8356422e-07
2.0152008e-10
6.2741142
-2.1715015e-06
3.312837e-09
6.2741144
5.0139122e-07
9.6346467e-10
2.1976003e-06
-2.5428505e-09
6.571211
-3.7608646e-07
1.0496206e-10
6.5712107
-1.8635446e-06
3.3120278e-09
6.5712108
3.8753915e-07
7.2403966e-10
1.884892e-06
-2.4315609e-09
6.871435
-2.698003e-07
-2.1944703e-11
6.8714346
-1.4457899e-06
3.1962396e-09
6.8714347
2.7304227e-07
4.7613576e-10
1.4610853e-06
-2.2187524e-09
7.1741147
-1.6439048e-07
-1.5292264e-10
7.1741141
-9.3162946e-07
2.8909379e-09
7.1741142
1.586754e-07
2.780934e-10
9.4131769e-07
-1.8767699e-09
7.4785608
-6.4671515e-08
-2.4536398e-10
7.4785602
-3.8138046e-07
2.3421396e-09
7.4785603
5.2358572e-08
2.4768619e-10
3.8909675e-07
-1.4261996e-09
7.7840718
-2.5230819e-10
7.7840714
1.3067315e-09
7.7840715
6.3109642e-10
-8.0419381e-10
0.10680963
2.4215715e-07
0.10680944
5.3142311e-07
0.10680954
-2.1485507e-07
-3.6544917e-07
0.033979558
-9.1121126e-08
0.033979814
2.9623278e-07
0.033979367
1.6250638e-07
-1.0534511e-07
-0.0055248007
-4.1563264e-07
-0.0055245022
-6.2240685e-08
-0.0055248969
5.4858611e-07
2.9346268e-07
-0.021209244
-9.6000084e-07
-0.021208636
-7.0556254e-07
-0.021209274
1.1602067e-06
9.6588913e-07
-0.02221789
-1.2487329e-06
-0.022217478
-1.1396257e-06
-0.022217826
1.5066493e-06
1.4148047e-06
-0.015387191
-1.206475e-06
-0.015387142
-1.2072478e-06
-0.015387112
1.5073869e-06
1.4836629e-06
-0.0041093264
-9.6642526e-07
-0.0041095463
-1.013289e-06
-0.004109272
1.2926499e-06
1.2831242e-06
0.010160345
-6.5120744e-07
0.010159994
-6.9739045e-07
0.010160374
9.8467746e-07
9.5491565e-07
0.026702124
-3.2240173e-07
0.026701728
-3.4343383e-07
0.026702136
6.4745917e-07
5.8421873e-07
0.045133446
-1.0267146e-08
0.045133053
5.5600358e-09
0.045133444
3.1565607e-07
2.1578957e-07
0.065328309
2.67098e-07
0.065327947
3.2536209e-07
0.065328296
1.2479258e-08
-1.2442692e-07
0.087360867
5.001691e-07
0.08736055
6.034732e-07
0.087360843
-2.4846284e-07
-4.2212626e-07
0.11142878
6.8791022e-07
0.11142851
8.3732125e-07
0.11142874
-4.6330854e-07
-6.7350862e-07
0.1377859
8.3508063e-07
0.13778568
1.0312803e-06
0.13778586
-6.3501279e-07
-8.8242671e-07
0.16670221
9.4853445e-07
0.16670202
1.1927316e-06
0.16670216
-7.6950528e-07
-1.0561473e-06
0.19844831
1.0345793e-06
0.19844815
1.3289676e-06
0.19844825
-8.7283292e-07
-1.202113e-06
0.23329401
1.0978934e-06
0.23329388
1.4456737e-06
0.23329395
-9.4986489e-07
-1.326317e-06
0.27151184
1.1415444e-06
0.27151173
1.5467406e-06
0.27151178
-1.0041252e-06
-1.4329802e-06
0.31338029
1.1674604e-06
0.31338019
1.634529e-06
0.31338022
-1.0381442e-06
-1.5248827e-06
0.35918525
1.1769239e-06
0.35918517
1.7104309e-06
0.35918517
-1.0538089e-06
-1.6038396e-06
0.4092197
1.1709051e-06
0.40921963
1.7753447e-06
0.40921962
-1.0525799e-06
-1.6710658e-06
0.4637824
1.1502197e-06
0.46378235
1.8298064e-06
0.46378232
-1.0357304e-06
-1.7273726e-06
0.52317622
1.1155746e-06
0.52317617
1.8740675e-06
0.52317613
-1.0043325e-06
-1.7732294e-06
0.58770655
1.0675681e-06
0.58770651
1.9080878e-06
0.58770645
-9.5926147e-07
-1.8087602e-06
0.65767988
1.0066935e-06
0.65767986
1.9315139e-06
0.65767978
-9.0121072e-07
-1.833728e-06
0.73340252
9.3336481e-07
0.73340251
1.9436756e-06
0.73340242
-8.3073285e-07
-1.8475299e-06
0.81517924
8.4796872e-07
0.81517924
1.9436134e-06
0.81517914
-7.4830676e-07
-1.8492714e-06
0.90331182
7.5093663e-07
0.90331183
1.9301329e-06
0.90331172
-6.544196e-07
-1.8377813e-06
0.99809731
6.4282217e-07
0.99809734
1.9018799e-06
0.99809721
-5.4965397e-07
-1.8117139e-06
1.0998259
5.2437411e-07
1.099826
1.8574246e-06
1.0998258
-4.347682e-07
-1.7696379e-06
1.2087787
3.9659673e-07
1.2087788
1.7953485e-06
1.2087786
-3.107622e-07
-1.7101263e-06
1.3252248
2.6079218e-07
1.3252249
1.7143265e-06
1.3252247
-1.7892403e-07
-1.6318417e-06
1.4494184
1.1858266e-07
1.4494185
1.6132033e-06
1.4494184
-4.0855068e-08
-1.5336138e-06
1.5815958
-2.8088148e-08
1.5815959
1.4910626e-06
1.5815958
1.0152631e-07
-1.4145094e-06
1.7219719
-1.7697342e-07
1.721972
1.3472891e-06
1.7219719
2.4600198e-07
-1.2738971e-06
1.870737
-3.2555982e-07
1.8707371
1.1816255e-06
1.870737
3.9009003e-07
-1.1114995e-06
2.0280535
-4.7112089e-07
2.0280537
9.9422574e-07
2.0280535
5.3109801e-07
-9.2745007e-07
2.1940526
-6.1078504e-07
2.1940528
7.8570442e-07
2.1940526
6.6619156e-07
-7.22341e-07
2.3688315
-7.4161663e-07
2.3688317
5.5718731e-07
2.3688315
7.9247645e-07
-4.9727024e-07
2.5524501
-8.6070806e-07
2.5524503
3.1035728e-07
2.5524502
9.0709187e-07
-2.5388794e-07
2.7449288
-9.652811e-07
2.744929
4.7503031e-08
2.7449289
1.0073129e-06
5.5569833e-09
2.9462458
-1.052795e-06
2.9462461
-2.2843231e-07
2.946246
1.0906597e-06
2.7816944e-07
3.1563357
-1.121059e-06
3.156336
-5.1380227e-07
3.1563359
1.1550086e-06
5.6035935e-07
3.3750871
-1.1683447e-06
3.3750874
-8.0420478e-07
3.3750873
1.1987046e-06
8.4778848e-07
3.6023419
-1.1934958e-06
3.6023422
-1.0944287e-06
3.6023422
1.2206658e-06
1.1353138e-06
3.8378945
-1.196027e-06
3.8378948
-1.3783981e-06
3.8378948
1.2204754e-06
1.416926e-06
4.0814912
-1.1762052e-06
4.0814915
-1.6491161e-06
4.0814915
1.1984518e-06
1.6856833e-06
4.3328305
-1.1351035e-06
4.3328308
-1.8986114e-06
4.3328308
1.1556858e-06
1.9336446e-06
4.5915636
-1.0746123e-06
4.5915639
-2.1178966e-06
4.5915639
1.0940303e-06
2.1518082e-06
4.8572956
-9.9739347e-07
4.8572958
-2.2969513e-06
4.8572959
1.0160282e-06
2.3300726e-06
5.1295868
-9.067572e-07
5.129587
-2.424757e-06
5.129587
9.247609e-07
2.4572444e-06
5.407955
-8.0644116e-07
5.4079551
-2.4894244e-06
5.4079552
8.236059e-07
2.5211445e-06
5.6918778
-7.0027664e-07
5.6918778
-2.478485e-06
5.6918779
7.1590172e-07
2.5088904e-06
5.9807955
-5.9173808e-07
5.9807954
-2.3794607e-06
5.9807955
6.0454709e-07
2.4074944e-06
6.2741145
-4.8341172e-07
6.2741143
-2.1809219e-06
6.2741144
4.9162149e-07
2.2050191e-06
6.5712111
-3.7651215e-07
6.5712107
-1.8744611e-06
6.5712108
3.7823781e-07
1.892771e-06
6.8714351
-2.7080717e-07
6.8714346
-1.4585755e-06
6.8714347
2.6508643e-07
1.4695735e-06
7.1741147
-1.6568782e-07
7.1741142
-9.4651046e-07
7.1741143
1.545559e-07
9.5023444e-07
7.4785609
-6.5949675e-08
7.4785603
-3.976893e-07
7.4785604
5.7110877e-08
3.976394e-07
7.7840719
7.7840714
7.7840715
)
;

boundaryField
{
    movingWall
    {
        type            calculated;
        value           uniform 0;
    }
    CPLReceiveMD
    {
        type            calculated;
        value           uniform 0;
    }
    streamwiseIn
    {
        type            cyclic;
        value           nonuniform List<scalar> 
120
(
-0.10680999
-0.033979557
0.0055250135
0.021209829
0.022218387
0.015387351
0.004109196
-0.010160638
-0.026702485
-0.04513382
-0.065328663
-0.087361181
-0.11142904
-0.13778612
-0.16670239
-0.19844846
-0.23329414
-0.27151194
-0.31338037
-0.35918531
-0.40921975
-0.46378244
-0.52317624
-0.58770656
-0.65767988
-0.7334025
-0.81517921
-0.90331178
-0.99809726
-1.0998259
-1.2087787
-1.3252247
-1.4494183
-1.5815957
-1.7219718
-1.8707369
-2.0280534
-2.1940525
-2.3688314
-2.55245
-2.7449287
-2.9462458
-3.1563356
-3.375087
-3.6023419
-3.8378945
-4.0814912
-4.3328305
-4.5915637
-4.8572957
-5.1295869
-5.4079551
-5.6918779
-5.9807956
-6.2741146
-6.5712111
-6.8714351
-7.1741148
-7.4785609
-7.7840719
-0.10680982
-0.033979168
0.0055251644
0.021209882
0.02221826
0.015387196
0.0041090934
-0.010160684
-0.026702494
-0.045133806
-0.065328634
-0.087361143
-0.111429
-0.13778608
-0.16670235
-0.19844841
-0.23329409
-0.2715119
-0.31338033
-0.35918527
-0.40921971
-0.46378239
-0.5231762
-0.58770651
-0.65767983
-0.73340245
-0.81517916
-0.90331173
-0.99809721
-1.0998258
-1.2087786
-1.3252247
-1.4494183
-1.5815957
-1.7219718
-1.8707368
-2.0280533
-2.1940525
-2.3688313
-2.55245
-2.7449286
-2.9462458
-3.1563356
-3.375087
-3.6023419
-3.8378945
-4.0814912
-4.3328306
-4.5915637
-4.8572957
-5.1295869
-5.4079551
-5.6918779
-5.9807956
-6.2741146
-6.5712112
-6.8714352
-7.1741149
-7.478561
-7.7840719
)
;
    }
    streamwiseOut
    {
        type            cyclic;
        value           nonuniform List<scalar> 
120
(
0.10680999
0.033979557
-0.0055250135
-0.021209829
-0.022218387
-0.015387351
-0.004109196
0.010160638
0.026702485
0.04513382
0.065328663
0.087361181
0.11142904
0.13778612
0.16670239
0.19844846
0.23329414
0.27151194
0.31338037
0.35918531
0.40921975
0.46378244
0.52317624
0.58770656
0.65767988
0.7334025
0.81517921
0.90331178
0.99809726
1.0998259
1.2087787
1.3252247
1.4494183
1.5815957
1.7219718
1.8707369
2.0280534
2.1940525
2.3688314
2.55245
2.7449287
2.9462458
3.1563356
3.375087
3.6023419
3.8378945
4.0814912
4.3328305
4.5915637
4.8572957
5.1295869
5.4079551
5.6918779
5.9807956
6.2741146
6.5712111
6.8714351
7.1741148
7.4785609
7.7840719
0.10680982
0.033979168
-0.0055251644
-0.021209882
-0.02221826
-0.015387196
-0.0041090934
0.010160684
0.026702494
0.045133806
0.065328634
0.087361143
0.111429
0.13778608
0.16670235
0.19844841
0.23329409
0.2715119
0.31338033
0.35918527
0.40921971
0.46378239
0.5231762
0.58770651
0.65767983
0.73340245
0.81517916
0.90331173
0.99809721
1.0998258
1.2087786
1.3252247
1.4494183
1.5815957
1.7219718
1.8707368
2.0280533
2.1940525
2.3688313
2.55245
2.7449286
2.9462458
3.1563356
3.375087
3.6023419
3.8378945
4.0814912
4.3328306
4.5915637
4.8572957
5.1295869
5.4079551
5.6918779
5.9807956
6.2741146
6.5712112
6.8714352
7.1741149
7.478561
7.7840719
)
;
    }
    front
    {
        type            cyclic;
        value           nonuniform 0();
    }
    back
    {
        type            cyclic;
        value           nonuniform 0();
    }
    procBoundary1to0
    {
        type            processor;
        value           nonuniform List<scalar> 
240
(
-2.6945243e-08
-1.12666e-09
1.4947871e-08
2.9715796e-08
-4.1638291e-08
-5.4190786e-10
-2.292882e-09
1.386067e-08
-2.6168859e-08
8.0210485e-09
-1.252708e-08
1.4518815e-09
-1.6505025e-08
1.4066498e-08
-1.5505717e-08
-5.3080846e-09
-1.2553453e-08
1.5558458e-08
-1.5058053e-08
-7.4516728e-09
-1.1571586e-08
1.2946994e-08
-1.2488024e-08
-6.8932244e-09
-1.1071767e-08
8.733973e-09
-9.2278362e-09
-4.7971393e-09
-1.0565204e-08
4.4889652e-09
-6.2151515e-09
-2.542489e-09
-9.8392688e-09
9.1491679e-10
-3.8142727e-09
-8.2829704e-10
-8.8190484e-09
-1.6814362e-09
-2.0345352e-09
1.1061453e-10
-7.1335054e-09
-3.3065654e-09
-7.4739672e-10
1.6151983e-10
-5.2721318e-09
-4.1223822e-09
1.8577591e-10
-1.6541227e-10
-3.5017655e-09
-4.3355684e-09
8.4959759e-10
-6.7247865e-10
-1.9546607e-09
-4.1435275e-09
1.3390115e-09
-1.2637337e-09
-6.9963953e-10
-3.7102059e-09
1.7122435e-09
-1.8256248e-09
2.4561119e-10
-3.1580757e-09
2.0057517e-09
-2.28486e-09
8.9925586e-10
-2.5714581e-09
2.2408487e-09
-2.608976e-09
1.3008174e-09
-1.9951895e-09
2.4299026e-09
-2.7961082e-09
1.4990604e-09
-1.442953e-09
2.5805852e-09
-2.8632264e-09
1.5432931e-09
-9.8985004e-10
2.6544632e-09
-2.8361959e-09
1.4779014e-09
-5.7461581e-10
2.7394968e-09
-2.7427145e-09
1.3400931e-09
-2.078595e-10
2.8084966e-09
-2.6078395e-09
1.1594067e-09
1.1482729e-10
2.861159e-09
-2.4521685e-09
9.5827141e-10
3.9851335e-10
2.9017284e-09
-2.2914477e-09
7.5308393e-10
6.4816318e-10
2.9347332e-09
-2.1366545e-09
5.5538536e-10
8.6833296e-10
2.9638084e-09
-1.9907123e-09
3.7296801e-10
1.0631044e-09
2.9914126e-09
-1.870784e-09
2.1068952e-10
1.2361073e-09
3.018798e-09
-1.7704125e-09
7.1178608e-11
1.3905472e-09
3.0461964e-09
-1.6912038e-09
-4.4568637e-11
1.529231e-09
3.0730682e-09
-1.6331885e-09
-1.3674028e-10
1.6545805e-09
3.098352e-09
-1.5953837e-09
-2.0636698e-10
1.7686416e-09
3.1206789e-09
-1.5761397e-09
-2.5505755e-10
1.8730992e-09
3.1385434e-09
-1.5734099e-09
-2.8479535e-10
1.9693034e-09
3.150434e-09
-1.5849509e-09
-2.9778349e-10
2.0583071e-09
3.1549241e-09
-1.6088882e-09
-2.9631616e-10
2.1409142e-09
3.1507355e-09
-1.6422178e-09
-2.826956e-10
2.2177356e-09
3.1367777e-09
-1.6834113e-09
-2.5915645e-10
2.2890487e-09
3.1121647e-09
-1.7306537e-09
-2.2781369e-10
2.3556297e-09
3.0762183e-09
-1.7823317e-09
-1.9061948e-10
2.417592e-09
3.0284644e-09
-1.8371081e-09
-1.4932837e-10
2.4753331e-09
2.9686172e-09
-1.8939139e-09
-1.0546505e-10
2.5293169e-09
2.8967538e-09
-1.9519101e-09
-6.0298331e-11
2.5801289e-09
2.8125028e-09
-2.010603e-09
-1.4819437e-11
2.6285152e-09
2.7162857e-09
-2.0696498e-09
3.0257103e-11
2.6754314e-09
2.6083871e-09
-2.1289586e-09
7.4460949e-11
2.7220812e-09
2.4892018e-09
-2.1886197e-09
1.1747685e-10
2.7699455e-09
2.3592247e-09
-2.2488222e-09
1.5897039e-10
2.820784e-09
2.2190392e-09
-2.3097036e-09
1.9829828e-10
2.8765671e-09
2.0692926e-09
-2.3710825e-09
2.3408477e-10
2.9392643e-09
1.910604e-09
-2.4320223e-09
2.6367948e-10
3.0103556e-09
1.7433731e-09
-2.490175e-09
2.8259448e-10
3.0898592e-09
1.567394e-09
-2.5408732e-09
2.8416768e-10
3.1745972e-09
1.3812413e-09
-2.5760026e-09
2.5994052e-10
3.2553766e-09
1.1815989e-09
-2.5828018e-09
2.015304e-10
3.3128304e-09
9.6347085e-10
-2.5428601e-09
1.04971e-10
3.3120216e-09
7.2404515e-10
-2.4315694e-09
-2.1936871e-11
3.196234e-09
4.7614065e-10
-2.2187599e-09
-1.5291578e-10
2.8909333e-09
2.7809763e-10
-1.8767763e-09
-2.4535776e-10
2.3421361e-09
2.4768967e-10
-1.4262048e-09
-2.5230288e-10
1.3067295e-09
6.3109881e-10
-8.041981e-10
)
;
    }
    procBoundary1to0throughback
    {
        type            processorCyclic;
        value           nonuniform List<scalar> 
240
(
-3.1391031e-08
-4.5331529e-08
-4.1139168e-08
-4.0228877e-08
-3.2707433e-08
-2.3193607e-08
-1.5011446e-08
-8.9713581e-09
-4.8829994e-09
-2.37298e-09
-1.4153204e-09
-1.0885919e-09
-1.1955338e-09
-1.4971394e-09
-1.828026e-09
-2.0914116e-09
-2.2436696e-09
-2.2774143e-09
-2.2064561e-09
-2.0540916e-09
-1.8455496e-09
-1.6038567e-09
-1.3480487e-09
-1.0928011e-09
-8.4877524e-10
-6.2330606e-10
-4.2110166e-10
-2.4476944e-10
-9.5301073e-11
2.7489603e-11
1.2463901e-10
1.9778171e-10
2.4895528e-10
2.8044724e-10
2.946761e-10
2.9408838e-10
2.8109341e-10
2.5800094e-10
2.2697863e-10
1.9001557e-10
1.4889194e-10
1.0515046e-10
6.0072724e-11
1.4659055e-11
-3.036962e-11
-7.4538524e-11
-1.1752909e-10
-1.5900436e-10
-1.9831918e-10
-2.3409644e-10
-2.6368468e-10
-2.825953e-10
-2.8416561e-10
-2.599364e-10
-2.0152507e-10
-1.0496485e-10
2.1943475e-11
1.5292243e-10
2.4536448e-10
2.5231015e-10
2.1919659e-08
9.5013058e-10
-1.8350076e-08
-3.0290657e-08
-3.383501e-08
-3.104326e-08
-2.5979267e-08
-1.968028e-08
-1.3741805e-08
-8.8229941e-09
-5.0991621e-09
-2.4856553e-09
-7.8801788e-10
2.1408665e-10
7.2317977e-10
9.0828376e-10
8.9667899e-10
7.2186812e-10
5.1132503e-10
2.8180041e-10
4.7829841e-11
-1.8183199e-10
-4.0186917e-10
-6.092567e-10
-8.0249212e-10
-9.8110922e-10
-1.145365e-09
-1.2960121e-09
-1.4341083e-09
-1.5608655e-09
-1.6775262e-09
-1.7852672e-09
-1.8851345e-09
-1.9780095e-09
-2.0646021e-09
-2.1454651e-09
-2.2210256e-09
-2.2914304e-09
-2.3573564e-09
-2.4188461e-09
-2.4762466e-09
-2.5299848e-09
-2.5806195e-09
-2.6288776e-09
-2.6757008e-09
-2.7222829e-09
-2.7700976e-09
-2.8208995e-09
-2.8766555e-09
-2.9393327e-09
-3.0104089e-09
-3.0899012e-09
-3.1746309e-09
-3.2554041e-09
-3.3128529e-09
-3.3120402e-09
-3.1962493e-09
-2.8909456e-09
-2.3421456e-09
-1.3067349e-09
-1.4259442e-08
-4.9538243e-09
3.5160023e-09
6.0041929e-09
5.6864483e-09
3.8129309e-09
1.3778253e-09
-6.9342791e-10
-2.1143999e-09
-2.9405766e-09
-3.3566657e-09
-3.5410649e-09
-3.5518779e-09
-3.4889334e-09
-3.4037801e-09
-3.3220407e-09
-3.2530699e-09
-3.1962674e-09
-3.140621e-09
-3.09204e-09
-3.0775996e-09
-3.0631351e-09
-3.0505756e-09
-3.0415879e-09
-3.0374959e-09
-3.0390576e-09
-3.0463837e-09
-3.0588946e-09
-3.0754205e-09
-3.0943648e-09
-3.1138781e-09
-3.132008e-09
-3.1468204e-09
-3.1564907e-09
-3.159363e-09
-3.1539937e-09
-3.1391726e-09
-3.1139266e-09
-3.0775151e-09
-3.0294186e-09
-2.9693177e-09
-2.8972682e-09
-2.8128791e-09
-2.7165597e-09
-2.6085855e-09
-2.4893445e-09
-2.3593262e-09
-2.2191104e-09
-2.0693416e-09
-1.9106369e-09
-1.7433945e-09
-1.5674073e-09
-1.3812488e-09
-1.1816023e-09
-9.6347159e-10
-7.2404404e-10
-4.761386e-10
-2.7809543e-10
-2.4768788e-10
-6.3109724e-10
-2.3113963e-09
-4.5738313e-09
-3.29316e-09
-3.4872307e-09
-6.0546628e-09
-8.6586188e-09
-1.0740324e-08
-1.1771217e-08
-1.1667392e-08
-1.057655e-08
-8.7167432e-09
-6.7612925e-09
-4.822218e-09
-3.0218841e-09
-1.4769063e-09
-2.3657924e-10
6.9808593e-10
1.3566368e-09
1.7843148e-09
2.0310193e-09
2.1440283e-09
2.1640752e-09
2.1241359e-09
2.049644e-09
1.9594844e-09
1.8602635e-09
1.7743863e-09
1.6996306e-09
1.6393366e-09
1.5952324e-09
1.567638e-09
1.5558773e-09
1.558626e-09
1.5741901e-09
1.60103e-09
1.6364915e-09
1.6792395e-09
1.7276134e-09
1.7801142e-09
1.8354884e-09
1.8927282e-09
1.9510396e-09
2.0099615e-09
2.0691748e-09
2.1286049e-09
2.1883547e-09
2.2486221e-09
2.3095512e-09
2.3709652e-09
2.4319313e-09
2.4901035e-09
2.5408167e-09
2.5759574e-09
2.5827651e-09
2.5428298e-09
2.4315439e-09
2.2187384e-09
1.8767583e-09
1.4261902e-09
8.041879e-10
)
;
    }
}


// ************************************************************************* //
