/*--------------------------------*- C++ -*----------------------------------*\
| =========                 |                                                 |
| \\      /  F ield         | OpenFOAM: The Open Source CFD Toolbox           |
|  \\    /   O peration     | Version:  3.0.x                                 |
|   \\  /    A nd           | Web:      www.OpenFOAM.org                      |
|    \\/     M anipulation  |                                                 |
\*---------------------------------------------------------------------------*/
FoamFile
{
    version     2.0;
    format      ascii;
    class       surfaceScalarField;
    location    "300";
    object      phi;
}
// * * * * * * * * * * * * * * * * * * * * * * * * * * * * * * * * * * * * * //

dimensions      [0 3 -1 0 0 0 0];

internalField   nonuniform List<scalar> 
2384
(
0.025044669
2.6872336e-07
-1.1081156e-09
0.025044775
-8.5053179e-08
-4.9141505e-09
0.025044672
1.1945468e-07
1.3840543e-09
1.0953113e-07
-2.1375877e-09
-0.088559085
8.2732947e-08
4.9174332e-09
-0.088558907
-2.4739263e-07
-3.4031777e-09
-0.088559091
2.9767392e-07
2.6914458e-09
2.8486687e-07
-7.1270836e-10
-0.11126318
-6.6940855e-08
7.8095619e-09
-0.11126305
-3.6724282e-07
-9.5149848e-10
-0.11126319
4.2846192e-07
3.2346757e-09
4.2423352e-07
8.0358409e-10
-0.10343857
-4.6885131e-08
9.7358557e-09
-0.10343861
-3.0927849e-07
7.3150249e-10
-0.10343858
3.7776574e-07
3.513856e-09
3.8965222e-07
2.3093032e-09
-0.081905468
1.4633966e-07
9.0524616e-09
-0.08190569
-7.6725189e-08
1.6234674e-09
-0.081905479
1.5430358e-07
3.3864759e-09
1.7771774e-07
3.1332327e-09
-0.056895247
4.203806e-07
7.6052008e-09
-0.056895559
2.415284e-07
1.9586253e-09
-0.056895266
-1.4677152e-07
3.1174321e-09
-1.2393556e-07
3.3573836e-09
-0.03370743
6.8625209e-07
6.1996627e-09
-0.033707741
5.5544291e-07
2.0094878e-09
-0.033707455
-4.3634656e-07
2.7871969e-09
-4.2553731e-07
3.2936768e-09
-0.013525566
8.868198e-07
5.060392e-09
-0.013525815
8.046614e-07
1.9167955e-09
-0.013525596
-6.578924e-07
2.4361368e-09
-6.6646686e-07
3.0859551e-09
0.0044633113
1.0077129e-06
4.0177605e-09
0.0044631436
9.7051848e-07
1.773634e-09
0.0044632825
-7.9731249e-07
2.0972131e-09
-8.2762409e-07
2.8145435e-09
0.021514123
1.0620253e-06
3.132719e-09
0.021514027
1.0637215e-06
1.6169433e-09
0.021514097
-8.6792795e-07
1.785423e-09
-9.1915945e-07
2.5205118e-09
0.038695011
1.0707024e-06
2.4211383e-09
0.038694965
1.1053257e-06
1.4761405e-09
0.038694988
-8.9094659e-07
1.5050119e-09
-9.614919e-07
2.2253185e-09
0.056794322
1.0516116e-06
1.8675637e-09
0.056794309
1.1147037e-06
1.3340321e-09
0.056794301
-8.8447802e-07
1.2576913e-09
-9.7334436e-07
1.9413147e-09
0.076400852
1.0169173e-06
1.4445787e-09
0.076400857
1.1057878e-06
1.1946107e-09
0.076400832
-8.609087e-07
1.0442057e-09
-9.6808932e-07
1.6753733e-09
0.097989259
9.7430121e-07
1.1251634e-09
0.097989273
1.0877682e-06
1.0621349e-09
0.097989238
-8.281385e-07
8.6316238e-10
-9.5447372e-07
1.4285121e-09
0.12196981
9.2875779e-07
8.8353612e-10
0.12196983
1.0667998e-06
9.4079711e-10
0.12196979
-7.9137819e-07
7.1174156e-10
-9.3837065e-07
1.2183347e-09
0.14871007
8.8373777e-07
6.9875675e-10
0.14871009
1.0472324e-06
8.3251383e-10
0.14871005
-7.5428365e-07
5.8621717e-10
-9.2393369e-07
1.0340272e-09
0.1785438
8.4159596e-07
5.575915e-10
0.17854381
1.0321616e-06
7.371547e-10
0.17854377
-7.1940479e-07
4.8255892e-10
-9.1414472e-07
8.7377005e-10
0.21177695
8.0369495e-07
4.4940997e-10
0.21177696
1.0235728e-06
6.5395359e-10
0.21177693
-6.8827934e-07
3.9682992e-10
-9.1092414e-07
7.3132796e-10
0.24869472
7.7043519e-07
3.6593433e-10
0.24869472
1.022369e-06
5.8169051e-10
0.24869469
-6.6145667e-07
3.2540724e-10
-9.151257e-07
5.8850085e-10
0.28956979
7.4134783e-07
3.003104e-10
0.28956978
1.028443e-06
5.1806905e-10
0.28956975
-6.3859031e-07
2.6509119e-10
-9.2670575e-07
5.0650237e-10
0.33467072
7.1527966e-07
2.4712716e-10
0.3346707
1.0408215e-06
4.6599666e-10
0.33467068
-6.1861534e-07
2.1351838e-10
-9.4468337e-07
4.297864e-10
0.38426934
6.9062735e-07
2.0226065e-10
0.38426932
1.057892e-06
4.2245225e-10
0.3842693
-5.9998644e-07
1.6903108e-10
-9.6744336e-07
3.6440967e-10
0.43864621
6.6557976e-07
1.6280776e-10
0.43864619
1.0776336e-06
3.8599982e-10
0.43864616
-5.8092435e-07
1.3015198e-10
-9.9295629e-07
3.0954017e-10
0.49809393
6.3833246e-07
1.2689545e-10
0.49809391
1.0978304e-06
3.5529274e-10
0.49809388
-5.5963496e-07
9.5789404e-11
-1.0189893e-06
2.6406694e-10
0.56291844
6.0725446e-07
9.3472205e-11
0.56291842
1.1162425e-06
3.2918346e-10
0.56291839
-5.3448044e-07
6.5161788e-11
-1.0432764e-06
2.2673738e-10
0.63343848
5.7100201e-07
6.2060129e-11
0.63343846
1.1307266e-06
3.0652225e-10
0.63343843
-5.0409755e-07
3.7775007e-11
-1.0636403e-06
1.962691e-10
0.7099837
5.2858495e-07
3.25549e-11
0.70998369
1.1393141e-06
2.8456191e-10
0.70998365
-4.6746785e-07
1.3360793e-11
-1.0780681e-06
1.7143267e-10
0.79289178
4.7939526e-07
5.0691468e-12
0.79289178
1.1402325e-06
2.6973943e-10
0.79289173
-4.2395014e-07
-8.2007991e-12
-1.0847517e-06
1.5110244e-10
0.88250479
4.2321014e-07
-2.0160357e-11
0.8825048
1.1319412e-06
2.5596767e-10
0.88250474
-3.7328528e-07
-2.6916377e-11
-1.0821028e-06
1.3429237e-10
0.97916523
3.6017792e-07
-4.2879463e-11
0.97916524
1.1131196e-06
2.4341256e-10
0.97916518
-3.1558461e-07
-4.2750766e-11
-1.0687545e-06
1.2017549e-10
1.0832117
2.9079458e-07
-6.287654e-11
1.0832117
1.0826631e-06
2.317953e-10
1.0832117
-2.5130832e-07
-5.5669852e-11
-1.043558e-06
1.080848e-10
1.1949745
2.1587531e-07
-8.0016879e-11
1.1949746
1.0396798e-06
2.2084786e-10
1.1949745
-1.812384e-07
-6.5668071e-11
-1.0055812e-06
9.7505246e-11
1.3147713
1.3652306e-07
-9.4255857e-11
1.3147713
9.8349233e-07
2.1031972e-10
1.3147713
-1.0644832e-07
-7.2785237e-11
-9.5411131e-07
8.8071497e-11
1.4429024
5.409447e-08
-1.0563908e-10
1.4429025
9.1364614e-07
2.0029519e-10
1.4429024
-2.8269871e-08
-7.7114058e-11
-8.8866462e-07
7.9556695e-11
1.5796467
-2.98374e-08
-1.1429348e-10
1.5796467
8.2992668e-07
1.9043325e-10
1.5796467
5.17436e-08
-7.8800496e-11
-8.0900326e-07
7.1828919e-11
1.7252569
-1.1352497e-07
-1.2041586e-10
1.725257
7.323813e-07
1.7999652e-10
1.7252569
1.3185865e-07
-7.8043851e-11
-7.1515758e-07
6.4834783e-11
1.879956
-1.9509388e-07
-1.242573e-10
1.8799561
6.2134552e-07
1.6939171e-10
1.879956
2.102092e-07
-7.5090977e-11
-6.0745332e-07
5.8579714e-11
2.0439323
-2.725975e-07
-1.2610373e-10
2.0439325
4.9747381e-07
1.5854008e-10
2.0439324
2.8485107e-07
-7.0225739e-11
-4.8654171e-07
5.310812e-11
2.2173366
-3.4407909e-07
-1.2625884e-10
2.2173368
3.6177125e-07
1.4737438e-10
2.2173367
3.5382427e-07
-6.375981e-11
-3.5343066e-07
4.8485577e-11
2.4002778
-4.0764149e-07
-1.250286e-10
2.4002779
2.1562476e-07
1.3585025e-10
2.4002779
4.1522306e-07
-5.6021686e-11
-2.0951551e-07
4.4783351e-11
2.5928198
-4.6152373e-07
-1.2270871e-10
2.59282
6.0832392e-08
1.239458e-10
2.5928199
4.6727294e-07
-4.7346811e-11
-5.6607682e-08
4.2066115e-11
2.7949787
-5.0418318e-07
-1.1957485e-10
2.7949789
-1.0037072e-07
1.1165916e-10
2.7949788
5.0841343e-07
-3.8067285e-11
1.0304009e-07
4.0382087e-11
3.0067201
-5.3438056e-07
-1.1593388e-10
3.0067202
-2.6529087e-07
9.9006377e-11
3.0067202
5.373838e-07
-2.850323e-11
2.6671284e-07
3.983595e-11
3.2279566
-5.5126544e-07
-1.1189137e-10
3.2279568
-4.3075988e-07
8.6019952e-11
3.2279568
5.5330877e-07
-1.895453e-11
4.3121843e-07
4.0259827e-11
3.4585467
-5.5445591e-07
-1.0771096e-10
3.4585468
-5.9312584e-07
7.2747745e-11
3.4585468
5.5577918e-07
-9.6952669e-12
5.9287856e-07
4.170158e-11
3.6982928
-5.4410827e-07
-1.0353271e-10
3.698293
-7.4825239e-07
5.9251675e-11
3.698293
5.4492205e-07
-9.6436341e-13
7.4752858e-07
4.410042e-11
3.9469413
-5.2096837e-07
-9.9493441e-11
3.9469415
-8.9152969e-07
4.5605233e-11
3.9469415
5.2145223e-07
7.0163795e-12
8.9052869e-07
4.7356633e-11
4.2041819
-4.8639539e-07
-9.5703675e-11
4.204182
-1.017903e-06
3.189229e-11
4.2041821
4.8669638e-07
1.4137317e-11
1.0167927e-06
5.1334596e-11
4.4696482
-4.423471e-07
-9.2254481e-11
4.4696483
-1.1219295e-06
1.8205621e-11
4.4696483
4.4257861e-07
2.0254507e-11
1.1208448e-06
5.5864959e-11
4.7429188
-3.9131358e-07
-8.9222121e-11
4.7429189
-1.1978819e-06
4.644343e-12
4.742919
3.9155434e-07
2.5295052e-11
1.1969234e-06
6.0749575e-11
5.0235191
-3.3618577e-07
-8.6672643e-11
5.0235192
-1.2399272e-06
-8.6862349e-12
5.0235192
3.3647951e-07
2.9227807e-11
1.2391602e-06
6.5773325e-11
5.3109232
-2.8004711e-07
-8.4663726e-11
5.3109232
-1.2424247e-06
-2.1674842e-11
5.3109233
2.8040339e-07
3.2060394e-11
1.2418792e-06
7.0727982e-11
5.6045569
-2.25883e-07
-8.3243971e-11
5.6045568
-1.2004065e-06
-3.4200975e-11
5.6045569
2.2628022e-07
3.3836746e-11
1.2000785e-06
7.5455288e-11
5.903801
-1.7621906e-07
-8.2447626e-11
5.9038009
-1.1103259e-06
-4.6129875e-11
5.903801
1.7661104e-07
3.4639635e-11
1.1101828e-06
7.9917083e-11
6.2079955
-1.3272913e-07
-8.2283815e-11
6.2079953
-9.7120223e-07
-5.7307875e-11
6.2079954
1.3305686e-07
3.4608817e-11
9.7119239e-07
8.4306241e-11
6.5164435
-9.5905557e-08
-8.2699519e-11
6.5164433
-7.8634927e-07
-6.7546694e-11
6.5164434
9.6115315e-08
3.4009635e-11
7.8641804e-07
8.9184591e-11
6.8284166
-6.4960456e-08
-8.3516668e-11
6.8284163
-5.6592601e-07
-7.6482093e-11
6.8284164
6.5028439e-08
3.3404975e-11
5.6603858e-07
9.5561191e-11
7.1431594
-3.8224942e-08
-8.4635037e-11
7.1431592
-3.3051224e-07
-8.3409727e-11
7.1431592
3.8187209e-08
3.4013762e-11
3.3068122e-07
1.0499996e-10
7.459896
-1.4727562e-08
-8.7087733e-11
7.4598958
-1.1711491e-07
-8.6517562e-11
7.4598958
1.4714205e-08
3.7371462e-11
1.1739135e-07
1.2146001e-10
7.7778349
-8.1237788e-11
7.7778348
-7.8646709e-11
7.7778348
3.9898052e-11
1.2991101e-10
0.025044688
-1.0126591e-07
2.2388131e-10
0.025044797
-8.5239983e-08
-2.376026e-09
0.025044689
1.1537954e-07
-2.3771843e-09
9.8263768e-08
-5.1021619e-09
-0.088559015
-2.4736894e-07
1.0040136e-08
-0.088558856
-2.5041201e-07
-1.9603191e-09
-0.088559011
2.7886728e-07
-1.1706406e-09
2.6671388e-07
-4.4940598e-09
-0.11126311
-3.5394943e-07
1.1217304e-08
-0.11126299
-3.7832808e-07
-8.7613927e-10
-0.11126311
4.0108982e-07
-1.065782e-10
4.0091599e-07
-2.7811287e-09
-0.10343849
-2.7415523e-07
1.0900646e-08
-0.10343855
-3.2129074e-07
6.0316262e-11
-0.10343848
3.3667464e-07
2.7743539e-10
3.5297893e-07
-1.6768091e-09
-0.081905417
-3.0751298e-08
9.3530515e-09
-0.081905644
-8.9888418e-08
3.8588418e-10
-0.081905412
1.0683315e-07
5.8018055e-10
1.3242273e-07
-1.1536824e-09
-0.056895229
2.8246232e-07
7.4107526e-09
-0.056895541
2.2683435e-07
4.7144164e-10
-0.056895234
-1.9509208e-07
6.3614381e-10
-1.7321388e-07
-9.0945836e-10
-0.033707439
5.778496e-07
5.6222844e-09
-0.033707747
5.3893128e-07
4.397305e-10
-0.033707453
-4.816044e-07
5.5619737e-10
-4.7493951e-07
-8.2422845e-10
-0.013525592
8.0070818e-07
4.194031e-09
-0.013525837
7.8624418e-07
3.5016486e-10
-0.013525612
-6.9799939e-07
4.4443929e-10
-7.1319541e-07
-7.8816114e-10
0.0044632808
9.3866412e-07
3.1342375e-09
0.0044631173
9.5071555e-07
2.3890839e-10
0.0044632592
-8.3186373e-07
3.4504978e-10
-8.7022433e-07
-7.6508505e-10
0.021514094
1.0061777e-06
2.4770341e-09
0.021514001
1.0434673e-06
1.2301473e-10
0.021514074
-8.9747215e-07
2.850954e-10
-9.5720806e-07
-7.4314318e-10
0.038694986
1.0253648e-06
1.8118913e-09
0.038694943
1.0855829e-06
1.1449697e-11
0.038694967
-9.1627059e-07
2.2068233e-10
-9.95091e-07
-7.1758192e-10
0.056794301
1.0147011e-06
1.2907774e-09
0.05679429
1.096169e-06
-8.7184861e-11
0.056794284
-9.0626677e-07
1.4088e-10
-1.0027883e-06
-6.8664147e-10
0.076400834
9.8678714e-07
8.7861775e-10
0.07640084
1.0888571e-06
-1.6765761e-10
0.076400816
-8.7970405e-07
7.9264254e-11
-9.9373035e-07
-6.4972702e-10
0.097989242
9.4957608e-07
6.402477e-10
0.097989258
1.0726025e-06
-2.285665e-10
0.097989224
-8.4436304e-07
3.2201045e-11
-9.7670609e-07
-6.0292455e-10
0.12196979
9.0834096e-07
4.8564844e-10
0.12196981
1.0534161e-06
-2.7341927e-10
0.12196977
-8.053735e-07
-3.3860003e-12
-9.5756234e-07
-5.5858152e-10
0.14871006
8.6681343e-07
3.2973438e-10
0.14871007
1.0355709e-06
-3.0486268e-10
0.14871004
-7.6633792e-07
-2.9571657e-11
-9.4045416e-07
-5.1475455e-10
0.17854378
8.2753039e-07
2.1161938e-10
0.1785438
1.0221211e-06
-3.2453883e-10
0.17854376
-7.2976594e-07
-4.7803434e-11
-9.283529e-07
-4.7138269e-10
0.21177694
7.9199087e-07
1.2334626e-10
0.21177695
1.0150306e-06
-3.3442423e-10
0.21177691
-6.9716105e-07
-5.9145323e-11
-9.2315208e-07
-4.4356094e-10
0.24869471
7.6069364e-07
5.9079416e-11
0.24869471
1.0151912e-06
-3.3648335e-10
0.24869468
-6.6904318e-07
-6.445722e-11
-9.2577431e-07
-3.5816664e-10
0.28956977
7.3324539e-07
1.4217815e-11
0.28956976
1.0224863e-06
-3.315192e-10
0.28956974
-6.4503536e-07
-6.4325825e-11
-9.3598488e-07
-3.165619e-10
0.3346707
7.0854566e-07
-1.4705975e-11
0.33467069
1.035952e-06
-3.2409745e-10
0.33467067
-6.2404895e-07
-5.962195e-11
-9.5278165e-07
-2.8382066e-10
0.38426933
6.8502895e-07
-3.0593114e-11
0.38426931
1.0539822e-06
-3.1522007e-10
0.38426929
-6.0452018e-07
-5.1358662e-11
-9.7451638e-07
-2.5436335e-10
0.43864619
6.6091315e-07
-3.5984618e-11
0.43864617
1.074563e-06
-3.0543857e-10
0.43864615
-5.8465622e-07
-4.0381575e-11
-9.991289e-07
-2.2752944e-10
0.49809391
6.34418e-07
-3.3126603e-11
0.49809389
1.0954854e-06
-2.9517622e-10
0.49809387
-5.626532e-07
-2.7400405e-11
-1.0243595e-06
-2.0345862e-10
0.56291842
6.0393404e-07
-2.4065912e-11
0.5629184
1.1145162e-06
-2.8477261e-10
0.56291837
-5.3686645e-07
-1.3116272e-11
-1.0479203e-06
-1.8224466e-10
0.63343846
5.6813769e-07
-1.0623665e-11
0.63343844
1.1295184e-06
-2.7451783e-10
0.63343841
-5.0592758e-07
1.7912816e-12
-1.067617e-06
-1.6378959e-10
0.70998369
5.260581e-07
5.599616e-12
0.70998368
1.1385215e-06
-2.6236085e-10
0.70998364
-4.6881377e-07
1.6679631e-11
-1.0814245e-06
-1.4783057e-10
0.79289176
4.7710642e-07
2.3244325e-11
0.79289176
1.1397732e-06
-2.5224677e-10
0.79289171
-4.248791e-07
3.0970713e-11
-1.0875257e-06
-1.3401112e-10
0.88250477
4.2107794e-07
4.1170015e-11
0.88250478
1.1317364e-06
-2.430393e-10
0.88250473
-3.7385997e-07
4.4142938e-11
-1.0843264e-06
-1.2194393e-10
0.97916521
3.58138e-07
5.8459406e-11
0.97916522
1.113095e-06
-2.3398064e-10
0.97916516
-3.1586329e-07
5.57546e-11
-1.0704559e-06
-1.1125949e-10
1.0832117
2.8879832e-07
7.441503e-11
1.0832117
1.0827488e-06
-2.2493891e-10
1.0832116
-2.5134487e-07
6.5459769e-11
-1.0447627e-06
-1.0163723e-10
1.1949745
2.1388843e-07
8.8544122e-11
1.1949745
1.0398106e-06
-2.1585545e-10
1.1949745
-1.8108251e-07
7.3014672e-11
-1.0063126e-06
-9.2823237e-11
1.3147713
1.3452406e-07
1.0053814e-10
1.3147713
9.8360788e-07
-2.0666606e-10
1.3147713
-1.0614584e-07
7.8277089e-11
-9.543912e-07
-8.4646774e-11
1.4429024
5.2073057e-08
1.1024769e-10
1.4429025
9.1369219e-07
-1.9765265e-10
1.4429024
-2.7863142e-08
8.120045e-11
-8.8851341e-07
-7.7024924e-11
1.5796466
-3.1881966e-08
1.1765498e-10
1.5796467
8.2985381e-07
-1.879359e-10
1.5796466
5.2215234e-08
8.182397e-11
-8.0843988e-07
-6.9931447e-11
1.7252569
-1.1558546e-07
1.2285048e-10
1.725257
7.3214482e-07
-1.7807197e-10
1.7252569
1.3235845e-07
8.0266528e-11
-7.141997e-07
-6.3389653e-11
1.879956
-1.9715655e-07
1.2600563e-10
1.8799561
6.2090657e-07
-1.6791401e-10
1.879956
2.1070274e-07
7.67132e-11
-6.0611756e-07
-5.7459862e-11
2.0439323
-2.7464347e-07
1.2734655e-10
2.0439325
4.9679957e-07
-1.5740026e-10
2.0439324
2.8530606e-07
7.1400256e-11
-4.8484401e-07
-5.2225513e-11
2.2173366
-3.4608562e-07
1.2713173e-10
2.2173368
3.60835e-07
-1.4648995e-10
2.2173367
3.5421051e-07
6.4602739e-11
-3.5138685e-07
-4.7779416e-11
2.4002778
-4.0958312e-07
1.2563305e-10
2.4002779
2.1440608e-07
-1.3516026e-10
2.4002779
4.1551255e-07
5.6621038e-11
-2.0714197e-07
-4.4211642e-11
2.5928198
-4.6337342e-07
1.2312042e-10
2.59282
5.9317284e-08
-1.2340521e-10
2.5928199
4.6744017e-07
4.7768806e-11
-5.3922131e-08
-4.1599621e-11
2.7949787
-5.059133e-07
1.198497e-10
2.7949789
-1.0218962e-07
-1.1123455e-10
2.7949788
5.0843571e-07
3.8361532e-11
1.0601764e-07
-4.0000296e-11
3.0067201
-5.3596426e-07
1.1615669e-10
3.0067202
-2.6741408e-07
-9.8672692e-11
3.0067202
5.3724184e-07
2.8706527e-11
2.6995933e-07
-3.9482672e-11
3.2279566
-5.5267707e-07
1.1203264e-10
3.2279568
-4.3318073e-07
-8.5758124e-11
3.2279568
5.529872e-07
1.9093938e-11
4.3470628e-07
-3.9978948e-11
3.4585467
-5.5567251e-07
1.0779765e-10
3.4585468
-5.9583015e-07
-7.254306e-11
3.4585468
5.5526727e-07
9.7904897e-12
5.9657477e-07
-4.1480101e-11
3.6982928
-5.4511067e-07
1.035842e-10
3.698293
-7.51218e-07
-5.9092614e-11
3.698293
5.4421436e-07
1.0294629e-12
7.5139363e-07
-4.3926911e-11
3.9469413
-5.2174245e-07
9.9523282e-11
3.9469415
-8.9472593e-07
-4.5482699e-11
3.9469415
5.2054931e-07
-6.9717714e-12
8.9451541e-07
-4.7221831e-11
4.2041819
-4.8693349e-07
9.5721138e-11
4.204182
-1.0212899e-06
-3.1798828e-11
4.2041821
4.8560574e-07
-1.4105635e-11
1.0208451e-06
-5.1231109e-11
4.4696482
-4.4264948e-07
9.2265613e-11
4.4696483
-1.1254571e-06
-1.813523e-11
4.4696484
4.4131528e-07
-2.0230201e-11
1.124897e-06
-5.5786653e-11
4.7429189
-3.9138989e-07
8.9230642e-11
4.7429189
-1.201489e-06
-4.5920956e-12
4.742919
3.9014164e-07
-2.5274685e-11
1.2008987e-06
-6.0691365e-11
5.0235191
-3.3605651e-07
8.6680774e-11
5.0235192
-1.24354e-06
8.7242384e-12
5.0235192
3.3494965e-07
-2.9209245e-11
1.2429702e-06
-6.5730864e-11
5.3109232
-2.7974465e-07
8.4672505e-11
5.3109232
-1.2459557e-06
2.1701627e-11
5.3109233
2.7879783e-07
-3.2042349e-11
1.2454238e-06
-7.0698317e-11
5.6045569
-2.2545187e-07
8.3253815e-11
5.6045568
-1.2037536e-06
3.4219069e-11
5.6045569
2.2464973e-07
-3.3818661e-11
1.2032478e-06
-7.5436562e-11
5.903801
-1.7571472e-07
8.2458288e-11
5.9038009
-1.1133732e-06
4.6141466e-11
5.903801
1.7501511e-07
-3.4621331e-11
1.1128608e-06
-7.9906503e-11
6.2079955
-1.3221431e-07
8.2295061e-11
6.2079954
-9.7382641e-07
5.7314147e-11
6.2079954
1.3156238e-07
-3.4590719e-11
9.7326729e-07
-8.4301386e-11
6.5164435
-9.544259e-08
8.2710447e-11
6.5164434
-7.8843512e-07
6.7549322e-11
6.5164434
9.4794882e-08
-3.3992366e-11
7.8780167e-07
-8.9183273e-11
6.8284166
-6.4598899e-08
8.3526271e-11
6.8284164
-5.6740263e-07
7.6483026e-11
6.8284164
6.395985e-08
-3.3389778e-11
5.6670364e-07
-9.5561216e-11
7.1431595
-3.7984434e-08
8.4642204e-11
7.1431592
-3.3143217e-07
8.341068e-11
7.1431593
3.7458347e-08
-3.4002173e-11
3.3073113e-07
-1.0499973e-10
7.459896
-1.4601235e-08
8.7092181e-11
7.4598958
-1.1764511e-07
8.6519255e-11
7.4598958
1.4415656e-08
-3.7364378e-11
1.1709989e-07
-1.2145961e-10
7.7778349
8.1239764e-11
7.7778348
7.8647243e-11
7.7778348
-3.9895786e-11
-1.2991212e-10
0.025044672
-1.169718e-07
-6.6646493e-10
0.025044778
-9.0119485e-08
2.0471731e-09
0.025044669
1.2359039e-07
1.5722378e-09
1.0241605e-07
4.9415355e-09
-0.088559082
-2.6456861e-07
-1.0624276e-08
-0.088558912
-2.5333584e-07
1.6110369e-09
-0.088559086
2.9642231e-07
4.2075185e-10
2.7895551e-07
4.3126766e-09
-0.11126318
-3.6433164e-07
-1.197865e-08
-0.11126306
-3.7510108e-07
5.4782415e-10
-0.11126318
4.2100951e-07
-5.0935659e-10
4.1758241e-07
2.5808365e-09
-0.10343857
-2.8470279e-07
-1.1744006e-08
-0.10343862
-3.1985102e-07
-4.2128439e-10
-0.10343857
3.652408e-07
-1.0743776e-09
3.8053205e-07
1.3494085e-09
-0.081905476
-3.748921e-08
-1.0199033e-08
-0.081905695
-8.8858541e-08
-7.386969e-10
-0.081905474
1.3863365e-07
-1.3647671e-09
1.6692335e-07
8.2148893e-10
-0.056895254
2.8056717e-07
-8.1750488e-09
-0.056895563
2.28884e-07
-7.9453075e-10
-0.056895262
-1.6356421e-07
-1.331695e-09
-1.3547562e-07
5.9747729e-10
-0.033707435
5.8078112e-07
-6.3244817e-09
-0.033707744
5.4307557e-07
-7.2248725e-10
-0.033707452
-4.5275202e-07
-1.1417662e-09
-4.3709414e-07
5.4787074e-10
-0.013525571
8.0786014e-07
-4.8583118e-09
-0.013525817
7.9304386e-07
-5.8837487e-10
-0.013525594
-6.7299617e-07
-9.1597136e-10
-6.7749008e-07
5.5414244e-10
0.0044633082
9.4879506e-07
-3.5097087e-09
0.0044631422
9.5993372e-07
-4.3392573e-10
0.0044632838
-8.106592e-07
-7.0244147e-10
-8.3774287e-07
5.7376694e-10
0.021514121
1.0183993e-06
-2.6959679e-09
0.021514026
1.0543444e-06
-2.7784589e-10
0.021514098
-8.7935073e-07
-5.2207826e-10
-9.2815633e-07
5.912881e-10
0.038695009
1.0385441e-06
-2.0602673e-09
0.038694965
1.0972275e-06
-1.3081392e-10
0.038694988
-9.0047718e-07
-3.895668e-10
-9.692854e-07
6.0008731e-10
0.056794321
1.0279294e-06
-1.485495e-09
0.056794308
1.107852e-06
-2.5440289e-12
0.056794302
-8.9224626e-07
-3.2531073e-10
-9.7995439e-07
5.9760389e-10
0.076400851
9.9942321e-07
-1.023471e-09
0.076400856
1.1000872e-06
1.0141562e-10
0.076400832
-8.6715227e-07
-2.1901916e-10
-9.7360212e-07
5.8317949e-10
0.097989258
9.6139089e-07
-7.166765e-10
0.097989272
1.0830964e-06
1.803093e-10
0.097989238
-8.3309873e-07
-1.3620062e-10
-9.590055e-07
5.5446608e-10
0.12196981
9.1932983e-07
-5.6324616e-10
0.12196983
1.0630246e-06
2.3869734e-10
0.12196979
-7.9528127e-07
-7.2395107e-11
-9.4203785e-07
5.2370552e-10
0.14871007
8.7686961e-07
-3.8451171e-10
0.14871009
1.0442182e-06
2.7984387e-10
0.14871005
-7.5733128e-07
-2.4317474e-11
-9.2686318e-07
4.8979411e-10
0.1785438
8.3659991e-07
-2.489804e-10
0.17854381
1.0297798e-06
3.0630059e-10
0.17854377
-7.2177059e-07
1.0584137e-11
-9.1646186e-07
4.5337975e-10
0.21177695
8.000613e-07
-1.4771781e-10
0.21177696
1.0217075e-06
3.208222e-10
0.21177693
-6.9010865e-07
3.4371123e-11
-9.1278347e-07
4.2880587e-10
0.24869472
7.6779136e-07
-7.3976311e-11
0.24869472
1.0209194e-06
3.2599148e-10
0.24869469
-6.6286627e-07
4.8788382e-11
-9.1659096e-07
3.5043473e-10
0.28956979
7.3942256e-07
-2.2403208e-11
0.28956978
1.0273236e-06
3.2317242e-10
0.28956975
-6.3967318e-07
5.5171723e-11
-9.2783439e-07
3.1081741e-10
0.33467072
7.1387561e-07
1.1144819e-11
0.3346707
1.0399634e-06
3.171514e-10
0.33467068
-6.1944546e-07
5.5016253e-11
-9.4554356e-07
2.7844287e-10
0.38426934
6.8960128e-07
3.0101757e-11
0.38426932
1.0572386e-06
3.0925652e-10
0.3842693
-6.0062195e-07
4.9818161e-11
-9.6809409e-07
2.487992e-10
0.43864621
6.6482795e-07
3.7416206e-11
0.43864619
1.0771393e-06
3.0018585e-10
0.43864616
-5.8141053e-07
4.0817439e-11
-9.9344567e-07
2.2173121e-10
0.49809393
6.3777994e-07
3.5674238e-11
0.49809391
1.0974587e-06
2.9047251e-10
0.49809388
-5.6000681e-07
2.9030203e-11
-1.0193555e-06
1.9756191e-10
0.56291844
6.0684695e-07
2.7156871e-11
0.56291842
1.1159643e-06
2.8052405e-10
0.56291839
-5.3476498e-07
1.5387829e-11
-1.0435491e-06
1.7643223e-10
0.63343848
5.7070024e-07
1.3873093e-11
0.63343846
1.1305167e-06
2.7217621e-10
0.63343843
-5.0431554e-07
7.4372943e-13
-1.0638424e-06
1.5823558e-10
0.7099837
5.2836059e-07
-2.4373405e-12
0.70998369
1.1391556e-06
2.582528e-10
0.70998365
-4.6763506e-07
-1.4128796e-11
-1.0782173e-06
1.4267181e-10
0.79289178
4.7922789e-07
-2.0320797e-11
0.79289178
1.1401153e-06
2.4835224e-10
0.79289173
-4.2407844e-07
-2.8560648e-11
-1.0848613e-06
1.2934189e-10
0.88250479
4.2308491e-07
-3.8569067e-11
0.8825048
1.1318553e-06
2.394579e-10
0.88250474
-3.7338375e-07
-4.1964816e-11
-1.082183e-06
1.1781781e-10
0.97916523
3.6008397e-07
-5.6217572e-11
0.97916524
1.113057e-06
2.3081518e-10
0.97916518
-3.1566018e-07
-5.3853722e-11
-1.0688129e-06
1.0769566e-10
1.0832117
2.9072395e-07
-7.2536482e-11
1.0832117
1.0826177e-06
2.2223198e-10
1.0832117
-2.5136628e-07
-6.3849809e-11
-1.0436005e-06
9.8625915e-11
1.1949745
2.1582215e-07
-8.7011902e-11
1.1949746
1.039647e-06
2.1361297e-10
1.1949745
-1.812828e-07
-7.1688277e-11
-1.005612e-06
9.0334329e-11
1.3147713
1.3648301e-07
-9.9322383e-11
1.3147713
9.8346861e-07
2.048876e-10
1.3147713
-1.0648228e-07
-7.7213561e-11
-9.5413365e-07
8.2635543e-11
1.4429024
5.4064309e-08
-1.0931133e-10
1.4429025
9.1362858e-07
1.9649929e-10
1.4429024
-2.8295785e-08
-8.0371329e-11
-8.8868084e-07
7.5437805e-11
1.5796467
-2.986007e-08
-1.1695798e-10
1.5796467
8.2991393e-07
1.8727316e-10
1.5796467
5.1723902e-08
-8.1197097e-11
-8.0901509e-07
6.8711324e-11
1.7252569
-1.1354196e-07
-1.2235324e-10
1.725257
7.3237201e-07
1.7759146e-10
1.7252569
1.3184376e-07
-7.9809469e-11
-7.1516626e-07
6.2479372e-11
1.879956
-1.9510654e-07
-1.2567084e-10
1.8799561
6.2133868e-07
1.6758035e-10
1.879956
2.10198e-07
-7.6394902e-11
-6.0745976e-07
5.6804667e-11
2.0439323
-2.7260688e-07
-1.2714024e-10
2.0439325
4.9746872e-07
1.5718241e-10
2.0439324
2.8484272e-07
-7.1192256e-11
-4.8654655e-07
5.177493e-11
2.2173366
-3.4408599e-07
-1.2702388e-10
2.2173368
3.617674e-07
1.4636108e-10
2.2173367
3.538181e-07
-6.4479781e-11
-3.5343435e-07
4.7488441e-11
2.4002778
-4.0764651e-07
-1.2559795e-10
2.4002779
2.1562181e-07
1.3509776e-10
2.4002779
4.1521854e-07
-5.65614e-11
-2.0951838e-07
4.4041291e-11
2.5928198
-4.6152735e-07
-1.2313652e-10
2.59282
6.0830088e-08
1.2339015e-10
2.5928199
4.6726968e-07
-4.775429e-11
-5.6609947e-08
4.1517176e-11
2.7949787
-5.0418574e-07
-1.1989949e-10
2.7949789
-1.0037255e-07
1.112516e-10
2.7949788
5.084111e-07
-3.837738e-11
1.0303828e-07
3.9978854e-11
3.0067201
-5.3438234e-07
-1.1618341e-10
3.0067202
-2.6529234e-07
9.8709834e-11
3.0067202
5.3738216e-07
-2.8741085e-11
2.6671137e-07
3.9542986e-11
3.2279566
-5.5126666e-07
-1.1208526e-10
3.2279568
-4.3076108e-07
8.5806081e-11
3.2279568
5.5330763e-07
-1.9138213e-11
4.3121723e-07
4.0047174e-11
3.4585467
-5.5445672e-07
-1.0786312e-10
3.4585468
-5.9312682e-07
7.2595047e-11
3.4585468
5.5577841e-07
-9.8380472e-12
5.9287758e-07
4.1549352e-11
3.6982928
-5.441088e-07
-1.0365316e-10
3.698293
-7.4825319e-07
5.9143836e-11
3.698293
5.4492154e-07
-1.0757816e-12
7.4752778e-07
4.3992546e-11
3.9469413
-5.209687e-07
-9.9589326e-11
3.9469415
-8.9153034e-07
4.5530044e-11
3.9469415
5.2145189e-07
6.9290319e-12
8.9052804e-07
4.7280857e-11
4.2041819
-4.8639559e-07
-9.5780195e-11
4.204182
-1.0179035e-06
3.18405e-11
4.2041821
4.8669617e-07
1.406859e-11
1.0167921e-06
5.1281913e-11
4.4696482
-4.4234721e-07
-9.2315469e-11
4.4696483
-1.1219299e-06
1.8170343e-11
4.4696483
4.4257848e-07
2.0200285e-11
1.1208444e-06
5.5828648e-11
4.7429188
-3.9131363e-07
-8.9270565e-11
4.7429189
-1.1978822e-06
4.6204251e-12
4.742919
3.9155425e-07
2.5252474e-11
1.1969231e-06
6.072466e-11
5.0235191
-3.361858e-07
-8.6711062e-11
5.0235192
-1.2399274e-06
-8.7023429e-12
5.0235192
3.3647946e-07
2.9194626e-11
1.23916e-06
6.5755958e-11
5.3109232
-2.8004711e-07
-8.4694055e-11
5.3109232
-1.2424249e-06
-2.1685503e-11
5.3109233
2.8040336e-07
3.2034682e-11
1.241879e-06
7.071544e-11
5.6045569
-2.25883e-07
-8.326772e-11
5.6045568
-1.2004067e-06
-3.4207873e-11
5.6045569
2.262802e-07
3.381693e-11
1.2000784e-06
7.5445666e-11
5.903801
-1.7621905e-07
-8.2466107e-11
5.9038009
-1.110326e-06
-4.6134336e-11
5.903801
1.7661103e-07
3.462445e-11
1.1101827e-06
7.9909282e-11
6.2079955
-1.3272912e-07
-8.2298234e-11
6.2079953
-9.7120232e-07
-5.731092e-11
6.2079954
1.3305687e-07
3.4597238e-11
9.711923e-07
8.4299567e-11
6.5164435
-9.5905543e-08
-8.2710929e-11
6.5164433
-7.8634933e-07
-6.7548853e-11
6.5164434
9.6115322e-08
3.4000541e-11
7.8641798e-07
8.9178759e-11
6.8284166
-6.4960442e-08
-8.3526042e-11
6.8284163
-5.6592606e-07
-7.6483238e-11
6.8284164
6.5028448e-08
3.3397399e-11
5.6603854e-07
9.5556243e-11
7.1431594
-3.8224936e-08
-8.4642654e-11
7.1431592
-3.3051226e-07
-8.3409937e-11
7.1431592
3.8187219e-08
3.400738e-11
3.306812e-07
1.0499625e-10
7.459896
-1.4727567e-08
-8.7092965e-11
7.4598958
-1.1711492e-07
-8.6517001e-11
7.4598958
1.4714209e-08
3.7366594e-11
1.1739135e-07
1.214579e-10
7.7778349
-8.1239356e-11
7.7778348
-7.8645547e-11
7.7778348
3.9896304e-11
1.2991078e-10
0.025044689
-1.0189284e-07
0.025044796
-8.6270228e-08
0.02504469
1.1392125e-07
9.7149384e-08
-0.088559014
-2.4827597e-07
-0.088558857
-2.5124006e-07
-0.08855901
2.7836886e-07
2.6540123e-07
-0.11126311
-3.54841e-07
-0.11126299
-3.78693e-07
-0.11126311
4.0165326e-07
3.9993325e-07
-0.10343849
-2.7457587e-07
-0.10343855
-3.2128888e-07
-0.10343848
3.3776355e-07
3.5246593e-07
-0.081905417
-3.0479197e-08
-0.081905644
-8.9545015e-08
-0.081905411
1.0817076e-07
1.3235276e-07
-0.056895229
2.832599e-07
-0.056895542
2.2737598e-07
-0.056895233
-1.9365251e-07
-1.7296472e-07
-0.033707438
5.7887124e-07
-0.033707747
5.3957166e-07
-0.033707453
-4.801606e-07
-4.7451627e-07
-0.013525591
8.0170458e-07
-0.013525837
7.8687859e-07
-0.013525612
-6.9661682e-07
-7.1271826e-07
0.004463281
9.3974123e-07
0.0044631171
9.5127396e-07
0.0044632594
-8.3057681e-07
-8.6976826e-07
0.021514094
1.0073202e-06
0.021514001
1.043934e-06
0.021514074
-8.9627595e-07
-9.568158e-07
0.038694986
1.0264183e-06
0.038694943
1.0859471e-06
0.038694968
-9.1517769e-07
-9.9478415e-07
0.056794302
1.0156292e-06
0.05679429
1.0964336e-06
0.056794284
-9.0534254e-07
-1.0025701e-06
0.076400834
9.8757769e-07
0.07640084
1.0890361e-06
0.076400816
-8.7893771e-07
-9.9359135e-07
0.097989242
9.5025728e-07
0.097989257
1.0727142e-06
0.097989224
-8.4373995e-07
-9.7663001e-07
0.12196979
9.0889226e-07
0.12196981
1.053478e-06
0.12196977
-8.0487659e-07
-9.5753187e-07
0.14871006
8.6724893e-07
0.14871007
1.0355985e-06
0.14871004
-7.6594941e-07
-9.4045383e-07
0.17854378
8.2786622e-07
0.1785438
1.0221272e-06
0.17854376
-7.2946839e-07
-9.2837091e-07
0.21177694
7.9224362e-07
0.21177695
1.0150248e-06
0.21177691
-6.9693817e-07
-9.2318339e-07
0.24869471
7.608793e-07
0.24869471
1.0151805e-06
0.24869468
-6.6888e-07
-9.2580084e-07
0.28956977
7.3337795e-07
0.28956976
1.0224752e-06
0.28956974
-6.4491917e-07
-9.3600751e-07
0.3346707
7.0863715e-07
0.33467069
1.035943e-06
0.33467067
-6.2396902e-07
-9.5279825e-07
0.38426933
6.8508932e-07
0.38426931
1.0539765e-06
0.38426929
-6.0446771e-07
-9.7452656e-07
0.43864619
6.6095046e-07
0.43864617
1.074561e-06
0.43864615
-5.8462409e-07
-9.9913313e-07
0.49809391
6.3443862e-07
0.49809389
1.0954867e-06
0.49809387
-5.6263576e-07
-1.0243587e-06
0.56291842
6.0394292e-07
0.5629184
1.1145204e-06
0.56291837
-5.3685931e-07
-1.0479156e-06
0.63343846
5.6813864e-07
0.63343844
1.1295263e-06
0.63343841
-5.0592737e-07
-1.0676095e-06
0.70998369
5.2605391e-07
0.70998368
1.1385307e-06
0.70998364
-4.6881803e-07
-1.0814152e-06
0.79289176
4.7709914e-07
0.79289176
1.1397832e-06
0.79289171
-4.2488601e-07
-1.0875154e-06
0.88250477
4.2106906e-07
0.88250478
1.1317466e-06
0.88250473
-3.7386824e-07
-1.0843159e-06
0.97916521
3.5812854e-07
0.97916522
1.1131048e-06
0.97916516
-3.1587199e-07
-1.0704456e-06
1.0832117
2.8878899e-07
1.0832117
1.0827579e-06
1.0832116
-2.5135338e-07
-1.044753e-06
1.1949745