/*--------------------------------*- C++ -*----------------------------------*\
| =========                 |                                                 |
| \\      /  F ield         | OpenFOAM: The Open Source CFD Toolbox           |
|  \\    /   O peration     | Version:  3.0.x                                 |
|   \\  /    A nd           | Web:      www.OpenFOAM.org                      |
|    \\/     M anipulation  |                                                 |
\*---------------------------------------------------------------------------*/
FoamFile
{
    version     2.0;
    format      ascii;
    class       volScalarField;
    location    "300";
    object      sigmayz;
}
// * * * * * * * * * * * * * * * * * * * * * * * * * * * * * * * * * * * * * //

dimensions      [0 2 -2 0 0 0 0];

internalField   nonuniform List<scalar> 
960
(
2.313672e-11
1.0591343e-11
3.6097957e-11
3.6440533e-12
1.7357638e-12
4.1156453e-12
4.7583891e-12
5.0226017e-12
4.5685635e-12
2.6916847e-12
6.9771748e-13
5.7132603e-12
4.3424775e-12
8.3104935e-13
-2.7273775e-12
3.576765e-12
1.0705972e-12
-1.0877913e-12
-5.5677824e-12
8.5449022e-13
-2.387651e-12
-2.5274246e-12
-7.1307872e-12
-1.005928e-12
-4.5495912e-12
-3.2738534e-12
-7.7005577e-12
-2.1219415e-12
-5.2281654e-12
-3.4580223e-12
-7.6466254e-12
-2.5740432e-12
-5.4954275e-12
-3.1924286e-12
-7.2447932e-12
-2.5582915e-12
-5.9365569e-12
-2.7324822e-12
-6.7382678e-12
-2.2833603e-12
-5.9339467e-12
-2.2076525e-12
-6.1954973e-12
-1.8703454e-12
-5.3671279e-12
-1.6720595e-12
-5.4487692e-12
-1.4005236e-12
-4.638597e-12
-1.1868912e-12
-4.5588614e-12
-9.540091e-13
-3.9655095e-12
-7.8668735e-13
-3.7347715e-12
-5.7789827e-13
-3.3108164e-12
-4.7809131e-13
-3.0052705e-12
-2.9183697e-13
-2.6465085e-12
-2.5497764e-13
-2.3717203e-12
-9.7395593e-14
-2.061143e-12
-1.0705784e-13
-1.8334204e-12
3.0282786e-14
-1.5680922e-12
-1.727346e-14
-1.3874357e-12
1.1461693e-13
-1.1636312e-12
2.9589577e-14
-1.0262059e-12
1.391389e-13
-8.4032705e-13
4.6232117e-14
-7.4024839e-13
1.1888095e-13
-5.8921214e-13
4.3839231e-14
-5.1803874e-13
9.3965249e-14
-3.9681143e-13
3.1209935e-14
-3.4770461e-13
6.343714e-14
-2.5301957e-13
1.4509309e-14
-2.2087261e-13
3.2250143e-14
-1.4825125e-13
-2.5422074e-15
-1.2839173e-13
4.9021421e-15
-7.323183e-14
-1.7919999e-14
-6.255499e-14
-1.7388179e-14
-2.1974083e-14
-3.4276756e-14
-1.7327092e-14
-3.4087768e-14
1.1726795e-14
-4.7029406e-14
1.2407566e-14
-4.5445582e-14
3.2777445e-14
-5.2494953e-14
3.0829965e-14
-5.214757e-14
4.4605315e-14
-5.4174075e-14
4.1086413e-14
-5.4938502e-14
4.9872257e-14
-5.3171258e-14
4.5513292e-14
-5.4874209e-14
5.0608191e-14
-5.0359628e-14
4.5924112e-14
-5.2337604e-14
4.8337286e-14
-4.6076142e-14
4.3696803e-14
-4.8183621e-14
4.4244533e-14
-4.1133857e-14
3.9817141e-14
-4.3191708e-14
3.9109187e-14
-3.6414312e-14
3.5056098e-14
-3.778458e-14
3.3578388e-14
-3.1429924e-14
2.9951337e-14
-3.2162879e-14
2.808301e-14
-2.6255058e-14
2.4916193e-14
-2.6627758e-14
2.2894794e-14
-2.1086717e-14
2.0184413e-14
-2.160789e-14
1.8176879e-14
-1.6755589e-14
1.5909192e-14
-1.7019565e-14
1.4010681e-14
-1.288358e-14
1.218091e-14
-1.3015452e-14
1.0463061e-14
-9.6037575e-15
8.9976124e-15
-9.6263064e-15
7.4966174e-15
-6.8526984e-15
6.3718773e-15
-6.8105238e-15
5.1005163e-15
-4.6500754e-15
4.2530862e-15
-4.5672231e-15
3.2153721e-15
-2.9191765e-15
2.6138914e-15
-2.8098745e-15
1.7876661e-15
-1.5963931e-15
1.3808721e-15
-1.5016328e-15
7.354664e-16
-6.5192051e-16
5.0646996e-16
-5.6322391e-16
8.4600156e-18
2.8433202e-17
-7.7812027e-17
1.9405732e-16
-4.7864838e-16
4.0614994e-16
-4.4653583e-16
4.022175e-16
-7.6884855e-16
6.9370855e-16
-6.281431e-16
6.8428786e-16
-8.9904436e-16
9.1556011e-16
-7.2090399e-16
7.3352792e-16
-9.0532665e-16
9.2156801e-16
-7.2787126e-16
9.0775127e-16
-8.5795566e-16
8.9226614e-16
-6.9065483e-16
7.2034889e-16
-7.5909003e-16
6.7554111e-16
-6.0018886e-16
6.7700254e-16
-6.4582128e-16
6.1699621e-16
-4.9941148e-16
6.1780768e-16
-5.250649e-16
5.5478147e-16
-4.0539556e-16
5.4936853e-16
-4.1241681e-16
3.1495481e-16
-2.9677756e-16
4.7151736e-16
-2.8924075e-16
2.3033422e-16
-1.7167062e-16
2.1121681e-16
-1.6322227e-16
1.5406502e-16
-4.5236157e-17
-5.151375e-17
-7.7685226e-17
5.9358492e-17
4.5963711e-17
-2.4188157e-17
-3.831657e-17
4.2289921e-17
7.4135893e-17
-4.6160669e-17
2.6696183e-18
9.1220176e-17
7.0452112e-17
-8.9989035e-17
1.4875554e-10
-2.8205566e-10
5.3963204e-11
-2.9112629e-10
-2.6364228e-10
1.4106072e-10
1.3924692e-10
1.2672108e-10
-7.6483512e-10
1.3342726e-10
7.2409152e-11
1.3325703e-10
-7.6984473e-10
7.0648255e-11
1.3827003e-12
7.828641e-11
-8.1773794e-10
3.5489889e-12
-4.8631264e-11
1.2056084e-11
-7.3385828e-10
-3.4488693e-11
-7.3140893e-11
-2.8818184e-11
-5.9582538e-10
-5.0026314e-11
-8.0406489e-11
-4.5760754e-11
-4.592394e-10
-5.3375434e-11
-7.7813316e-11
-4.9873474e-11
-3.4532232e-10
-5.1209787e-11
-7.049473e-11
-4.8471244e-11
-2.5670437e-10
-4.6861585e-11
-6.1431689e-11
-4.4683088e-11
-1.8953414e-10
-4.162945e-11
-5.2102618e-11
-3.9872605e-11
-1.3969892e-10
-3.6137258e-11
-4.321088e-11
-3.4751948e-11
-1.0325761e-10
-3.0775106e-11
-3.52026e-11
-2.9709006e-11
-7.6539635e-11
-2.5766821e-11
-2.8323215e-11
-2.4967883e-11
-5.647895e-11
-2.122296e-11
-2.2545167e-11
-2.0628481e-11
-4.1369221e-11
-1.7211856e-11
-1.7777034e-11
-1.6746758e-11
-3.0229577e-11
-1.3772746e-11
-1.3908014e-11
-1.3410693e-11
-2.2064598e-11
-1.0897954e-11
-1.0816345e-11
-1.0735354e-11
-1.6099209e-11
-8.5397294e-12
-8.3744711e-12
-8.5816052e-12
-1.1749052e-11
-6.6363908e-12
-6.4594611e-12
-6.7159787e-12
-8.5747155e-12
-5.1185651e-12
-4.9657301e-12
-5.1544382e-12
-6.2666652e-12
-3.9142902e-12
-3.8086833e-12
-3.9167458e-12
-4.5894801e-12
-2.9707929e-12
-2.9162497e-12
-2.9558318e-12
-3.3695301e-12
-2.2403586e-12
-2.2293567e-12
-2.217806e-12
-2.4815586e-12
-1.6806608e-12
-1.7047464e-12
-1.6554174e-12
-1.8340388e-12
-1.2615492e-12
-1.3050225e-12
-1.2294876e-12
-1.3609835e-12
-9.5191725e-13
-1.0003193e-12
-9.0880311e-13
-1.013768e-12
-7.122401e-13
-7.6738121e-13
-6.687353e-13
-7.5754507e-13
-5.2425237e-13
-5.8884682e-13
-4.9016502e-13
-5.6762323e-13
-3.826692e-13
-4.5187599e-13
-3.5773029e-13
-4.2624923e-13
-2.7831666e-13
-3.4665433e-13
-2.6036024e-13
-3.2063718e-13
-2.0134714e-13
-2.6571328e-13
-1.890215e-13
-2.4140977e-13
-1.4566954e-13
-2.0339064e-13
-1.3703219e-13
-1.8180391e-13
-1.0623501e-13
-1.5537628e-13
-9.9377392e-14
-1.3675521e-13
-7.7995751e-14
-1.1833193e-13
-7.2161881e-14
-1.0259242e-13
-5.6908428e-14
-8.9714853e-14
-5.2951019e-14
-7.6634504e-14
-4.1636267e-14
-6.7620688e-14
-3.9013261e-14
-5.6914604e-14
-3.080642e-14
-5.061502e-14
-2.9163426e-14
-4.1977442e-14
-2.3120119e-14
-3.7568751e-14
-2.2091926e-14
-3.0662375e-14
-1.7630213e-14
-2.7631524e-14
-1.6999227e-14
-2.2162687e-14
-1.36881e-14
-2.0096831e-14
-1.3322832e-14
-1.5806018e-14
-1.079114e-14
-1.4428994e-14
-1.0597983e-14
-1.1105978e-14
-8.6337557e-15
-1.0202187e-14
-8.5370308e-15
-7.6332754e-15
-6.9924708e-15
-7.0997566e-15
-6.9662547e-15
-5.140729e-15
-5.7131687e-15
-4.8568291e-15
-5.7019069e-15
-3.37803e-15
-4.678616e-15
-3.26945e-15
-4.6523734e-15
-2.1501478e-15
-3.9172242e-15
-2.1392949e-15
-3.8960364e-15
-1.3027755e-15
-3.2249651e-15
-1.368287e-15
-3.0442017e-15
-7.4784221e-16
-2.5898687e-15
-8.6219566e-16
-2.5790546e-15
-4.0722718e-16
-2.0038584e-15
-5.3331597e-16
-1.9917369e-15
-1.8663448e-16
-1.4634844e-15
-3.2828449e-16
-1.6083314e-15
-8.1504787e-17
-1.1244091e-15
-1.9661454e-16
-1.2592471e-15
-4.25226e-17
-9.759578e-16
-1.1181175e-16
-9.4288789e-16
-5.1438592e-18
-8.4496901e-16
-6.90743e-17
-6.5307598e-16
-2.279376e-18
-5.5981764e-16
-7.897178e-17
-3.7839581e-16
-3.3615495e-17
-4.5709398e-16
-7.6589813e-17
-2.7715591e-16
-7.3904529e-17
-2.0567386e-16
-1.3329778e-16
-1.9100245e-16
-1.1956045e-16
-8.4399411e-17
-1.8159139e-16
-7.0522393e-17
-1.4486265e-16
-5.7510031e-17
-2.0798912e-16
-3.9149097e-17
-1.7360491e-16
-4.9290392e-17
-2.2395425e-16
2.8167722e-17
-2.313672e-11
-1.0591343e-11
-3.6097957e-11
-3.6440533e-12
-1.7357638e-12
-4.1156453e-12
-4.7583891e-12
-5.0226017e-12
-4.5685635e-12
-2.6916847e-12
-6.9771748e-13
-5.7132603e-12
-4.3424775e-12
-8.3104935e-13
2.7273775e-12
-3.576765e-12
-1.0705972e-12
1.0877913e-12
5.5677824e-12
-8.5449022e-13
2.387651e-12
2.5274246e-12
7.1307872e-12
1.005928e-12
4.5495912e-12
3.2738534e-12
7.7005577e-12
2.1219415e-12
5.2281654e-12
3.4580223e-12
7.6466254e-12
2.5740432e-12
5.4954275e-12
3.1924286e-12
7.2447932e-12
2.5582915e-12
5.9365569e-12
2.7324822e-12
6.7382678e-12
2.2833603e-12
5.9339467e-12
2.2076525e-12
6.1954973e-12
1.8703454e-12
5.3671279e-12
1.6720595e-12
5.4487692e-12
1.4005236e-12
4.638597e-12
1.1868912e-12
4.5588614e-12
9.540091e-13
3.9655095e-12
7.8668735e-13
3.7347715e-12
5.7789827e-13
3.3108164e-12
4.7809131e-13
3.0052705e-12
2.9183697e-13
2.6465085e-12
2.5497764e-13
2.3717203e-12
9.7395594e-14
2.061143e-12
1.0705784e-13
1.8334204e-12
-3.0282786e-14
1.5680922e-12
1.727346e-14
1.3874357e-12
-1.1461693e-13
1.1636312e-12
-2.9589577e-14
1.0262059e-12
-1.391389e-13
8.4032705e-13
-4.6232117e-14
7.4024839e-13
-1.1888095e-13
5.8921214e-13
-4.3839231e-14
5.1803874e-13
-9.3965249e-14
3.9681143e-13
-3.1209935e-14
3.4770461e-13
-6.343714e-14
2.5301957e-13
-1.4509309e-14
2.2087261e-13
-3.2250143e-14
1.4825125e-13
2.5422074e-15
1.2839173e-13
-4.9021421e-15
7.323183e-14
1.7919999e-14
6.255499e-14
1.7388179e-14
2.1974083e-14
3.4276756e-14
1.7327092e-14
3.4087768e-14
-1.1726795e-14
4.7029406e-14
-1.2407566e-14
4.5445582e-14
-3.2777445e-14
5.2494953e-14
-3.0829965e-14
5.214757e-14
-4.4605315e-14
5.4174075e-14
-4.1086413e-14
5.4938502e-14
-4.9872257e-14
5.3171258e-14
-4.5513292e-14
5.4874209e-14
-5.0608191e-14
5.0359628e-14
-4.5924112e-14
5.2337604e-14
-4.8337286e-14
4.6076142e-14
-4.3696803e-14
4.8183621e-14
-4.4244533e-14
4.1133857e-14
-3.9817141e-14
4.3191708e-14
-3.9109187e-14
3.6414312e-14
-3.5056098e-14
3.778458e-14
-3.3578388e-14
3.1429924e-14
-2.9951337e-14
3.2162879e-14
-2.808301e-14
2.6255058e-14
-2.4916193e-14
2.6627758e-14
-2.2894794e-14
2.1086717e-14
-2.0184413e-14
2.160789e-14
-1.8176879e-14
1.6755589e-14
-1.5909192e-14
1.7019565e-14
-1.4010681e-14
1.288358e-14
-1.218091e-14
1.3015452e-14
-1.0463061e-14
9.6037576e-15
-8.9976125e-15
9.6263064e-15
-7.4966174e-15
6.8526984e-15
-6.3718773e-15
6.8105238e-15
-5.1005163e-15
4.6500754e-15
-4.2530862e-15
4.567223e-15
-3.2153721e-15
2.9191765e-15
-2.6138914e-15
2.8098745e-15
-1.7876661e-15
1.5963931e-15
-1.3808721e-15
1.5016328e-15
-7.354664e-16
6.5192051e-16
-5.0646996e-16
5.6322391e-16
-8.4600145e-18
-2.8433202e-17
7.7812027e-17
-1.9405732e-16
4.7864838e-16
-4.0614995e-16
4.4653583e-16
-4.0221756e-16
7.6884855e-16
-6.9370855e-16
6.281431e-16
-6.8428786e-16
8.9904436e-16
-9.1556011e-16
7.2090399e-16
-7.3352785e-16
9.0532665e-16
-9.2156801e-16
7.2787126e-16
-9.0775127e-16
8.5795566e-16
-8.9226614e-16
6.9065483e-16
-7.2034889e-16
7.5909003e-16
-6.7554111e-16
6.0018886e-16
-6.7700254e-16
6.4582128e-16
-6.1699621e-16
4.9941148e-16
-6.1780768e-16
5.250649e-16
-5.5478147e-16
4.0539556e-16
-5.4936852e-16
4.1241681e-16
-3.1495481e-16
2.9677756e-16
-4.7151735e-16
2.8924075e-16
-2.3033422e-16
1.7167062e-16
-2.1121681e-16
1.6322227e-16
-1.5406502e-16
4.5236163e-17
5.151375e-17
7.7685225e-17
-5.9358493e-17
-4.596371e-17
2.4188158e-17
3.831657e-17
-4.2289924e-17
-7.4135898e-17
4.6160669e-17
-2.6696176e-18
-9.122018e-17
-7.0452113e-17
8.9989035e-17
-1.4875554e-10
2.8205566e-10
-5.3963204e-11
2.9112629e-10
2.6364228e-10
-1.4106072e-10
-1.3924692e-10
-1.2672108e-10
7.6483512e-10
-1.3342726e-10
-7.2409152e-11
-1.3325703e-10
7.6984473e-10
-7.0648255e-11
-1.3827003e-12
-7.828641e-11
8.1773794e-10
-3.5489889e-12
4.8631264e-11
-1.2056084e-11
7.3385828e-10
3.4488693e-11
7.3140893e-11
2.8818184e-11
5.9582538e-10
5.0026314e-11
8.0406489e-11
4.5760754e-11
4.592394e-10
5.3375434e-11
7.7813316e-11
4.9873474e-11
3.4532232e-10
5.1209787e-11
7.049473e-11
4.8471244e-11
2.5670437e-10
4.6861585e-11
6.1431689e-11
4.4683088e-11
1.8953414e-10
4.162945e-11
5.2102618e-11
3.9872605e-11
1.3969892e-10
3.6137258e-11
4.321088e-11
3.4751948e-11
1.0325761e-10
3.0775106e-11
3.52026e-11
2.9709006e-11
7.6539635e-11
2.5766821e-11
2.8323215e-11
2.4967883e-11
5.647895e-11
2.122296e-11
2.2545167e-11
2.0628481e-11
4.1369221e-11
1.7211856e-11
1.7777034e-11
1.6746758e-11
3.0229577e-11
1.3772746e-11
1.3908014e-11
1.3410693e-11
2.2064598e-11
1.0897954e-11
1.0816345e-11
1.0735354e-11
1.6099209e-11
8.5397294e-12
8.3744711e-12
8.5816052e-12
1.1749052e-11
6.6363908e-12
6.4594611e-12
6.7159787e-12
8.5747155e-12
5.1185651e-12
4.9657301e-12
5.1544382e-12
6.2666652e-12
3.9142902e-12
3.8086833e-12
3.9167458e-12
4.5894801e-12
2.9707929e-12
2.9162497e-12
2.9558318e-12
3.3695301e-12
2.2403586e-12
2.2293567e-12
2.217806e-12
2.4815586e-12
1.6806608e-12
1.7047464e-12
1.6554174e-12
1.8340388e-12
1.2615492e-12
1.3050225e-12
1.2294876e-12
1.3609835e-12
9.5191725e-13
1.0003193e-12
9.0880311e-13
1.013768e-12
7.122401e-13
7.6738121e-13
6.687353e-13
7.5754507e-13
5.2425237e-13
5.8884682e-13
4.9016502e-13
5.6762323e-13
3.826692e-13
4.5187599e-13
3.5773029e-13
4.2624923e-13
2.7831666e-13
3.4665433e-13
2.6036024e-13
3.2063718e-13
2.0134714e-13
2.6571328e-13
1.890215e-13
2.4140977e-13
1.4566954e-13
2.0339064e-13
1.3703219e-13
1.8180391e-13
1.0623501e-13
1.5537628e-13
9.9377392e-14
1.3675521e-13
7.7995751e-14
1.1833193e-13
7.2161881e-14
1.0259242e-13
5.6908428e-14
8.9714853e-14
5.2951019e-14
7.6634504e-14
4.1636267e-14
6.7620688e-14
3.9013261e-14
5.6914604e-14
3.080642e-14
5.061502e-14
2.9163426e-14
4.1977442e-14
2.3120119e-14
3.7568751e-14
2.2091926e-14
3.0662375e-14
1.7630213e-14
2.7631524e-14
1.6999227e-14
2.2162687e-14
1.36881e-14
2.0096831e-14
1.3322832e-14
1.5806018e-14
1.079114e-14
1.4428994e-14
1.0597983e-14
1.1105978e-14
8.6337557e-15
1.0202187e-14
8.5370308e-15
7.6332754e-15
6.9924708e-15
7.0997566e-15
6.9662547e-15
5.140729e-15
5.7131687e-15
4.8568291e-15
5.7019069e-15
3.37803e-15
4.678616e-15
3.26945e-15
4.6523734e-15
2.1501478e-15
3.9172242e-15
2.1392949e-15
3.8960365e-15
1.3027755e-15
3.2249651e-15
1.368287e-15
3.0442017e-15
7.4784221e-16
2.5898687e-15
8.6219566e-16
2.5790546e-15
4.0722718e-16
2.0038584e-15
5.3331597e-16
1.9917369e-15
1.8663448e-16
1.4634844e-15
3.2828449e-16
1.6083314e-15
8.1504787e-17
1.1244091e-15
1.9661454e-16
1.2592471e-15
4.25226e-17
9.7595781e-16
1.1181175e-16
9.4288789e-16
5.1438592e-18
8.4496901e-16
6.9074306e-17
6.5307598e-16
2.2793761e-18
5.5981764e-16
7.897178e-17
3.7839581e-16
3.3615495e-17
4.5709398e-16
7.6589806e-17
2.7715591e-16
7.3904529e-17
2.0567386e-16
1.3329778e-16
1.9100245e-16
1.1956046e-16
8.439941e-17
1.8159139e-16
7.0522392e-17
1.4486265e-16
5.751003e-17
2.0798912e-16
3.9149097e-17
1.736049e-16
4.9290391e-17
2.2395425e-16
-2.8167723e-17
)
;

boundaryField
{
    movingWall
    {
        type            calculated;
        value           nonuniform List<scalar> 
16
(
5.1934862e-17
-2.1268327e-16
-5.1934862e-17
2.1268327e-16
1.5023864e-16
-4.7412719e-17
-1.5023865e-16
4.7412719e-17
6.403854e-17
-2.2827501e-16
-6.4038543e-17
2.28275e-16
-1.4116143e-16
1.1015235e-16
1.4116143e-16
-1.1015235e-16
)
;
    }
    CPLReceiveMD
    {
        type            calculated;
        value           nonuniform List<scalar> 
16
(
4.7390096e-11
-3.1761919e-10
-4.7390096e-11
3.1761919e-10
1.9143552e-11
-6.8651155e-10
-1.9143552e-11
6.8651155e-10
6.8985868e-11
-5.0168698e-11
-6.8985868e-11
5.0168698e-11
5.846428e-12
-6.884129e-10
-5.846428e-12
6.884129e-10
)
;
    }
    streamwiseIn
    {
        type            cyclic;
    }
    streamwiseOut
    {
        type            cyclic;
    }
    front
    {
        type            cyclic;
    }
    back
    {
        type            cyclic;
    }
}


// ************************************************************************* //
