/*--------------------------------*- C++ -*----------------------------------*\
| =========                 |                                                 |
| \\      /  F ield         | OpenFOAM: The Open Source CFD Toolbox           |
|  \\    /   O peration     | Version:  3.0.x                                 |
|   \\  /    A nd           | Web:      www.OpenFOAM.org                      |
|    \\/     M anipulation  |                                                 |
\*---------------------------------------------------------------------------*/
FoamFile
{
    version     2.0;
    format      ascii;
    class       volScalarField;
    location    "300";
    object      sigmaxx;
}
// * * * * * * * * * * * * * * * * * * * * * * * * * * * * * * * * * * * * * //

dimensions      [0 2 -2 0 0 0 0];

internalField   nonuniform List<scalar> 
960
(
8.4214448e-10
5.1321004e-09
-5.6878225e-09
-5.460145e-09
7.459208e-09
7.9412159e-09
-8.7232359e-09
-8.0550944e-09
7.212282e-09
6.2838116e-09
-6.9459992e-09
-6.5014851e-09
-5.0283353e-11
-8.5458175e-10
3.657835e-10
5.3187093e-10
-7.827993e-09
-8.3418759e-09
7.8691692e-09
7.9946788e-09
-1.1352948e-08
-1.223543e-08
1.1441236e-08
1.1939436e-08
-1.1075203e-08
-1.2262433e-08
1.1192587e-08
1.2029634e-08
-8.3726148e-09
-9.7291815e-09
8.5023275e-09
9.557275e-09
-5.0369669e-09
-6.3721384e-09
5.1703416e-09
6.2569519e-09
-2.2078305e-09
-3.4332013e-09
2.3399267e-09
3.367318e-09
-2.6247114e-10
-1.3100004e-09
3.9033347e-10
1.284295e-09
9.3888619e-10
-1.2935808e-11
-8.1715921e-10
1.8004266e-11
1.6553802e-09
7.5595242e-10
-1.5408426e-09
-7.2860331e-10
2.017584e-09
1.1296458e-09
-1.9104172e-09
-1.0868261e-09
2.1970685e-09
1.2838036e-09
-2.0967933e-09
-1.2304679e-09
2.2159639e-09
1.2437072e-09
-2.1217041e-09
-1.1832814e-09
2.1343141e-09
1.0934885e-09
-2.044906e-09
-1.0282941e-09
2.0772263e-09
1.0040139e-09
-1.9913922e-09
-9.3561135e-10
1.792053e-09
6.7976425e-10
-1.7085823e-09
-6.088977e-10
1.5129939e-09
3.5685547e-10
-1.4308398e-09
-2.8361284e-10
1.4716523e-09
4.7347478e-11
-1.3900384e-09
2.8157792e-11
1.674396e-09
-2.3974093e-10
-1.5928599e-09
3.1721488e-10
1.6803701e-09
-5.486138e-11
-1.5987127e-09
1.3399161e-10
1.7114408e-09
-2.8291759e-10
-1.6296977e-09
3.6332231e-10
1.7652195e-09
-3.5901351e-11
-1.683619e-09
1.1711256e-10
2.0596265e-09
2.4101579e-10
-1.9785347e-09
-1.5956379e-10
2.3678261e-09
5.4547665e-10
-2.2877034e-09
-4.643974e-10
2.6844894e-09
8.7461242e-10
-2.6058497e-09
-7.9452286e-10
3.0042441e-09
1.2253073e-09
-2.9276267e-09
-1.1468625e-09
3.3219094e-09
1.8163591e-09
-3.2478536e-09
-1.740229e-09
3.8545424e-09
2.4228441e-09
-3.7835641e-09
-2.3496553e-09
3.931949e-09
2.8198805e-09
-3.8645223e-09
-2.7502036e-09
4.2158453e-09
3.6702089e-09
-4.1523889e-09
-3.6045409e-09
4.2588622e-09
4.083061e-09
-4.1997289e-09
-4.0218142e-09
4.2798889e-09
4.7208237e-09
-4.2253576e-09
-4.6643254e-09
3.3888383e-09
5.801751e-09
-3.339108e-09
-5.7502345e-09
3.359233e-09
5.9903367e-09
-3.3144213e-09
-5.9439401e-09
5.5215354e-09
6.1697713e-09
-5.4816791e-09
-6.1285407e-09
3.2182446e-09
6.3351532e-09
-3.1832998e-09
-6.2990486e-09
3.1075536e-09
6.4811435e-09
-3.0774014e-09
-6.4500477e-09
2.972246e-09
8.8211146e-09
-2.9466987e-09
-8.7948408e-09
2.8153727e-09
6.6915943e-09
-2.7941819e-09
-6.6698963e-09
2.6411764e-09
6.7435308e-09
-2.6240415e-09
-6.7261126e-09
2.3596846e-10
8.970289e-09
-2.2254413e-10
-8.9568151e-09
2.2636604e-09
6.7077448e-09
-2.2535659e-09
-6.6978469e-09
-1.4470683e-10
8.8256039e-09
1.5188029e-10
-8.8188877e-09
-3.2353338e-10
8.6598846e-09
3.2821818e-10
-8.655932e-09
-4.8336732e-10
6.2043665e-09
4.8601558e-10
-6.2027387e-09
-6.1584368e-10
5.8918655e-09
6.1692379e-10
-5.8921051e-09
-7.1352468e-10
3.2801634e-09
7.1351684e-10
-3.2817945e-09
-7.7081061e-10
2.8060069e-09
7.7019822e-10
-2.8085417e-09
-7.8501139e-10
2.2529377e-09
7.8426432e-10
-2.2558892e-09
-7.574779e-10
-5.8861993e-10
7.5702015e-10
5.8570993e-10
-6.9460074e-10
-3.4790871e-09
6.9475375e-10
3.4765969e-09
-2.8275021e-09
-4.1639403e-09
2.8283976e-09
4.1620957e-09
-5.159668e-10
-7.0284726e-09
5.1746444e-10
7.0272758e-09
-4.3531187e-10
-9.7635139e-09
4.3708276e-10
9.7629843e-09
-3.7327005e-10
-9.9465108e-09
3.7488228e-10
9.9454028e-09
-2.9655423e-10
-7.1664186e-09
2.9649848e-10
7.1665462e-09
-2.4507165e-09
-4.0749766e-09
2.4504823e-09
4.0775009e-09
5.2954846e-09
5.1929493e-09
-5.5584697e-09
-5.3557324e-09
7.4229001e-09
7.5992735e-09
-7.6056495e-09
-7.6753173e-09
5.7802014e-09
6.2107156e-09
-5.9838284e-09
-6.2827841e-09
-1.6833717e-09
-1.0776395e-09
1.499216e-09
9.5496479e-10
-8.8416805e-09
-8.4529373e-09
8.6673358e-09
8.3038067e-09
-1.2046031e-08
-1.2199243e-08
1.1899532e-08
1.2047559e-08
-1.1529281e-08
-1.2157006e-08
1.1416475e-08
1.2017988e-08
-8.6768528e-09
-9.5788813e-09
8.5959575e-09
9.4566068e-09
-5.2445249e-09
-6.2251266e-09
5.1936237e-09
6.1229717e-09
-2.3865914e-09
-3.2946801e-09
2.3627002e-09
3.2143614e-09
-4.0006568e-10
-1.2328818e-09
3.970084e-10
1.1734993e-09
8.3846629e-10
5.1181657e-11
-8.2723656e-10
-9.1918468e-11
1.545722e-09
7.8958756e-10
-1.5247701e-09
-8.1421336e-10
1.9414423e-09
1.136507e-09
-1.9135973e-09
-1.1474221e-09
2.1303125e-09
1.2662989e-09
-2.0975785e-09
-1.2656208e-09
2.1343418e-09
1.225461e-09
-2.0981609e-09
-1.2149185e-09
1.8808976e-09
1.0753645e-09
-1.8418509e-09
-1.0562331e-09
2.0503854e-09
7.6467164e-10
-2.0084105e-09
-7.3761514e-10
1.7691021e-09
4.4151066e-10
-1.7239205e-09
-4.0698526e-10
1.715269e-09
3.4183652e-10
-1.6666038e-09
-3.0070051e-10
1.4549127e-09
3.3735452e-11
-1.4025899e-09
1.3171065e-11
1.6602641e-09
-2.5194705e-10
-1.6042402e-09
3.0401455e-10
1.6686186e-09
-6.5675965e-11
-1.6090226e-09
1.2225444e-10
1.7018578e-09
-2.9236334e-10
-1.6390041e-09
3.527447e-10
1.7575928e-09
-4.4017953e-11
-1.6919556e-09
1.0744092e-10
2.053742e-09
2.3420784e-10
-1.9859309e-09
-1.685277e-10
2.3634628e-09
5.3992535e-10
-2.294192e-09
-4.7279658e-10
2.6814179e-09
8.7019326e-10
-2.6114706e-09
-8.0245647e-10
3.0022367e-09
1.2219269e-09
-2.9324253e-09
-1.1543956e-09
3.3207474e-09
1.8139735e-09
-3.2518786e-09
-1.7474043e-09
3.8540203e-09
2.1994895e-09
-3.7868665e-09
-2.1345905e-09
3.9318772e-09
2.8193235e-09
-3.8671529e-09
-2.7567433e-09
4.2160529e-09
3.6704733e-09
-4.1543958e-09
-3.6107909e-09
4.259199e-09
4.0840745e-09
-4.2011563e-09
-4.0277924e-09
4.2802256e-09
4.7225185e-09
-4.2262442e-09
-4.6700484e-09
5.6081868e-09
5.8040588e-09
-5.558608e-09
-5.7557186e-09
5.5783848e-09
5.993181e-09
-5.5334449e-09
-5.9491981e-09
3.3021804e-09
6.17307e-09
-3.2620143e-09
-6.1335808e-09
3.2176905e-09
6.3388211e-09
-3.1823354e-09
-6.303872e-09
3.1066435e-09
6.485094e-09
-3.0760472e-09
-6.4546455e-09
2.970958e-09
8.8252584e-09
-2.9449886e-09
-8.7991936e-09
2.8137004e-09
6.6958394e-09
-2.7921556e-09
-6.6739723e-09
2.6391276e-09
6.7477815e-09
-2.6217456e-09
-6.7298664e-09
2.3356376e-10
8.9744456e-09
-2.2003361e-10
-8.9601852e-09
2.260936e-09
6.7117022e-09
-2.2509051e-09
-6.700757e-09
-1.4769729e-10
8.8292516e-09
1.546173e-10
-8.8212459e-09
-3.2671893e-10
8.6631033e-09
3.3094675e-10
-8.6576318e-09
-4.8665765e-10
6.2070266e-09
4.8864e-10
-6.2036575e-09
-6.1912784e-10
3.6747065e-09
6.1933767e-10
-3.672985e-09
-2.9357913e-09
3.2812697e-09
2.9347246e-09
-3.2807238e-09
-7.7366834e-10
2.8060846e-09
7.7183527e-10
-2.8062382e-09
-7.8741561e-10
2.2517947e-09
7.8532039e-10
-2.2521917e-09
-7.5926182e-10
-5.9118522e-10
7.5736318e-10
5.9094247e-10
-6.9561927e-10
-3.4832663e-09
6.9425439e-10
3.4834489e-09
-6.0854289e-10
-4.1698698e-09
6.0781199e-10
4.1705294e-09
-2.7343714e-09
-7.0360753e-09
2.7340491e-09
7.037015e-09
-4.336918e-10
-7.5530473e-09
4.3348766e-10
7.5537692e-09
-3.7163493e-10
-9.9537554e-09
3.699844e-10
9.9543586e-09
-2.948187e-10
-7.1731325e-09
2.9121905e-10
7.1701573e-09
-2.4492346e-09
-4.0814189e-09
2.4459677e-09
4.0742661e-09
5.5404774e-09
5.152668e-09
-5.6566626e-09
-5.4188103e-09
8.159907e-09
7.8768563e-09
-8.171178e-09
-8.1354443e-09
6.2475941e-09
6.2886505e-09
-6.2633407e-09
-6.5297535e-09
-1.0454068e-09
-7.9440217e-10
1.0705052e-09
5.775308e-10
-8.4166353e-09
-8.2829192e-09
8.4536597e-09
8.0984532e-09
-1.1855266e-08
-1.216294e-08
1.1901752e-08
1.2015665e-08
-1.1454984e-08
-1.2202234e-08
1.151211e-08
1.2090851e-08
-8.6667692e-09
-9.6823886e-09
8.7330662e-09
9.6043958e-09
-5.2585086e-09
-6.3374737e-09
5.3319353e-09
6.2919282e-09
-2.3709191e-09
-3.4085306e-09
2.4489159e-09
3.392137e-09
-3.8712597e-10
-1.2931836e-09
4.6851073e-10
1.3012917e-09
8.5106493e-10
-1.8992772e-12
-7.6675351e-10
2.9325795e-11
1.5793114e-09
7.629081e-10
-1.4936779e-09
-7.2131134e-10
1.971674e-09
1.1337386e-09
-1.8872204e-09
-1.0824054e-09
2.156458e-09
1.2859167e-09
-2.0745848e-09
-1.2281058e-09
2.179786e-09
1.2445364e-09
-2.0999894e-09
-1.1822593e-09
2.1240952e-09
1.0935565e-09
-2.045567e-09
-1.027878e-09
2.0698541e-09
1.0036651e-09
-1.9920672e-09
-9.354322e-10
1.7867752e-09
6.7921172e-10
-1.7091994e-09
-6.0913769e-10
1.509226e-09
3.5622981e-10
-1.4313775e-09
-2.8427477e-10
1.468975e-09
4.6713382e-11
-1.3904892e-09
2.738056e-11
1.6725116e-09
-2.4034121e-10
-1.5932249e-09
3.1650209e-10
1.6790495e-09
-5.539272e-11
-1.5990037e-09
1.3338208e-10
1.7105182e-09
-2.833656e-10
-1.6299233e-09
3.6281755e-10
1.764577e-09
-3.6258111e-11
-1.6837877e-09
1.167032e-10
2.05918e-09
2.4074915e-10
-1.97866e-09
-1.5989007e-10
2.367515e-09
5.4526573e-10
-2.2877981e-09
-4.6465345e-10
2.6842702e-09
8.7442515e-10
-2.6059231e-09
-7.9472056e-10
3.0040874e-09
1.2251483e-09
-2.927685e-09
-1.1470132e-09
3.3217956e-09
1.8162367e-09
-3.2479008e-09
-1.7403418e-09
3.8544584e-09
2.4227529e-09
-3.783603e-09
-2.3497379e-09
3.9318857e-09
2.8198144e-09
-3.8645551e-09
-2.7502632e-09
4.2157966e-09
3.6701641e-09
-4.1524167e-09
-3.6045827e-09
4.2588239e-09
4.0830318e-09
-4.1997529e-09
-4.0218429e-09
4.279858e-09
4.720804e-09
-4.2253785e-09
-4.6643434e-09
3.3888129e-09
5.8017375e-09
-3.3391264e-09
-5.7502452e-09
3.3592118e-09
5.9903285e-09
-3.3144373e-09
-5.9439462e-09
5.5215179e-09
6.1697672e-09
-5.4816928e-09
-6.1285432e-09
3.21823e-09
6.3351518e-09
-3.1833114e-09
-6.2990492e-09
3.1075416e-09
6.4811437e-09
-3.0774111e-09
-6.4500469e-09
2.9722362e-09
8.8211156e-09
-2.9467067e-09
-8.7948395e-09
2.8153648e-09
6.6915956e-09
-2.7941884e-09
-6.6698948e-09
2.6411701e-09
6.7435322e-09
-2.6240466e-09
-6.7261111e-09
2.3596354e-10
8.9702903e-09
-2.2254804e-10
-8.9568139e-09
2.2636567e-09
6.7077458e-09
-2.2535688e-09
-6.697846e-09
-1.447095e-10
8.8256048e-09
1.5187822e-10
-8.8188869e-09
-3.2353531e-10
8.6598853e-09
3.2821673e-10
-8.6559318e-09
-4.8336865e-10
6.2043666e-09
4.8601469e-10
-6.2027386e-09
-6.1584446e-10
5.8918652e-09
6.1692328e-10
-5.8921051e-09
-7.1352511e-10
3.2801627e-09
7.1351662e-10
-3.2817949e-09
-7.7081078e-10
2.8060063e-09
7.7019823e-10
-2.8085419e-09
-7.8501132e-10
2.2529377e-09
7.8426439e-10
-2.2558897e-09
-7.574778e-10
-5.886196e-10
7.5702029e-10
5.8570933e-10
-6.9460064e-10
-3.4790874e-09
6.9475403e-10
3.4765962e-09
-2.8275019e-09
-4.1639407e-09
2.8283978e-09
4.1620954e-09
-5.1596662e-10
-7.028473e-09
5.1746465e-10
7.0272758e-09
-4.3531168e-10
-9.7635146e-09
4.3708299e-10
9.7629841e-09
-3.7326983e-10
-9.9465111e-09
3.7488249e-10
9.9454023e-09
-2.9655408e-10
-7.1664189e-09
2.9649865e-10
7.166546e-09
-2.4507165e-09
-4.0749768e-09
2.4504824e-09
4.0775008e-09
5.2716503e-09
5.2005728e-09
-5.5366632e-09
-5.3448409e-09
7.4201462e-09
7.5966795e-09
-7.6219749e-09
-7.6711817e-09
5.7724705e-09
6.2002441e-09
-6.0093556e-09
-6.2886519e-09
-1.6973375e-09
-1.0867425e-09
1.4796191e-09
9.4613381e-10
-8.8595097e-09
-8.4610164e-09
8.6511719e-09
8.2952722e-09
-1.2106753e-08
-1.2205754e-08
1.1930908e-08
1.2040739e-08
-1.1541479e-08
-1.2161567e-08
1.1406284e-08
1.2013056e-08
-8.6858261e-09
-9.5815353e-09
8.5881326e-09
9.4536181e-09
-5.2523976e-09
-6.2262919e-09
5.1876323e-09
6.1215314e-09
-2.3931878e-09
-3.2949283e-09
2.3581176e-09
3.2139972e-09
-4.0430708e-10
-1.232558e-09
3.9389205e-10
1.1738411e-09
8.3615336e-10
5.1813617e-11
-8.2885493e-10
-9.119867e-11
1.5444009e-09
7.9029967e-10
-1.5254149e-09
-8.1338927e-10
1.940751e-09
1.1371607e-09
-1.9137411e-09
-1.1466662e-09
2.1302319e-09
1.2668291e-09
-2.0974e-09
-1.265026e-09
2.1346723e-09
1.2258417e-09
-2.0977807e-09
-1.2144976e-09
1.8813972e-09
1.0755994e-09
-1.8413652e-09
-1.055951e-09
2.0509488e-09
7.6478351e-10
-2.0078899e-09
-7.3748092e-10
1.769668e-09
4.4152453e-10
-1.7234108e-09
-4.0701292e-10
1.7157983e-09
3.4177841e-10
-1.6661318e-09
-3.008146e-10
1.4553866e-09
3.3630883e-11
-1.402167e-09
1.3025511e-11
1.6606768e-09
-2.5207667e-10
-1.6038725e-09
3.0384761e-10
1.6689685e-09
-6.5815213e-11
-1.6087117e-09
1.2208387e-10
1.7021489e-09
-2.9250174e-10
-1.6387457e-09
3.5258301e-10
1.7578304e-09
-4.4153635e-11
-1.6917446e-09
1.072945e-10
2.0539321e-09
2.3407995e-10
-1.9857617e-09
-1.6865514e-10
2.3636132e-09
5.3981892e-10
-2.2940584e-09
-4.7290399e-10
2.6815351e-09
8.7010994e-10
-2.6113668e-09
-8.0254413e-10
3.0023261e-09
1.2218616e-09
-2.9323464e-09
-1.1544654e-09
3.3208139e-09
1.813923e-09
-3.2518202e-09
-1.7474578e-09
3.8540682e-09
2.1994521e-09
-3.7868246e-09
-2.1346292e-09
3.9319102e-09
2.8192975e-09
-3.8671243e-09
-2.7567705e-09
4.2160743e-09
3.670455e-09
-4.1543776e-09
-3.610809e-09
4.2592115e-09
4.0840628e-09
-4.201146e-09
-4.0278029e-09
4.2802314e-09
4.722513e-09
-4.2262397e-09
-4.6700526e-09
5.6081879e-09
5.8040585e-09
-5.5586076e-09
-5.7557187e-09
5.5783826e-09
5.9931837e-09
-5.5334473e-09
-5.9491956e-09
3.3021762e-09
6.1730739e-09
-3.2620183e-09
-6.1335763e-09
3.2176851e-09
6.3388262e-09
-3.1823403e-09
-6.3038666e-09
3.1066376e-09
6.4850995e-09
-3.0760524e-09
-6.4546399e-09
2.9709521e-09
8.8252638e-09
-2.9449937e-09
-8.7991881e-09
2.8136949e-09
6.6958444e-09
-2.7921602e-09
-6.6739673e-09
2.6391228e-09
6.747786e-09
-2.6217496e-09
-6.729862e-09
2.3355962e-10
8.9744494e-09
-2.2003692e-10
-8.9601816e-09
2.2609326e-09
6.7117054e-09
-2.2509077e-09
-6.7007538e-09
-1.4769999e-10
8.8292539e-09
1.5461535e-10
-8.8212439e-09
-3.2672101e-10
8.6631051e-09
3.3094538e-10
-8.6576305e-09
-4.8665913e-10
6.2070283e-09
4.886391e-10
-6.2036564e-09
-6.1912882e-10
3.6747076e-09
6.1933708e-10
-3.6729839e-09
-2.9357918e-09
3.2812703e-09
2.9347243e-09
-3.2807233e-09
-7.7366861e-10
2.8060845e-09
7.7183526e-10
-2.8062383e-09
-7.8741566e-10
2.2517945e-09
7.8532054e-10
-2.2521915e-09
-7.5926175e-10
-5.9118503e-10
7.5736338e-10
5.9094254e-10
-6.9561916e-10
-3.4832666e-09
6.942546e-10
3.4834489e-09
-6.0854274e-10
-4.1698702e-09
6.078123e-10
4.1705289e-09
-2.7343712e-09
-7.0360753e-09
2.7340495e-09
7.0370141e-09
-4.336915e-10
-7.5530474e-09
4.3348796e-10
7.5537689e-09
-3.7163456e-10
-9.9537557e-09
3.6998472e-10
9.9543586e-09
-2.9481842e-10
-7.1731327e-09
2.9121928e-10
7.1701571e-09
-2.4492345e-09
-4.081419e-09
2.4459678e-09
4.0742659e-09
)
;

boundaryField
{
    movingWall
    {
        type            calculated;
        value           nonuniform List<scalar> 
16
(
-2.4357578e-09
-2.435086e-09
-2.4357578e-09
-2.4350861e-09
-3.7357766e-09
-3.7407934e-09
-3.7357767e-09
-3.7407935e-09
2.4368095e-09
2.4326408e-09
2.4368096e-09
2.432641e-09
3.7385088e-09
3.7332028e-09
3.7385089e-09
3.7332027e-09
)
;
    }
    CPLReceiveMD
    {
        type            calculated;
        value           nonuniform List<scalar> 
16
(
-1.9934173e-09
5.0061828e-09
5.3870184e-09
4.9816572e-09
4.7708404e-09
4.9418532e-09
4.932692e-09
4.9508463e-09
-5.4554657e-09
-5.3907891e-09
-5.4438681e-09
-5.3667402e-09
-5.3719493e-09
-5.1556238e-09
-5.1819588e-09
-5.1453448e-09
)
;
    }
    streamwiseIn
    {
        type            cyclic;
    }
    streamwiseOut
    {
        type            cyclic;
    }
    front
    {
        type            cyclic;
    }
    back
    {
        type            cyclic;
    }
}


// ************************************************************************* //
