/*--------------------------------*- C++ -*----------------------------------*\
| =========                 |                                                 |
| \\      /  F ield         | OpenFOAM: The Open Source CFD Toolbox           |
|  \\    /   O peration     | Version:  3.0.x                                 |
|   \\  /    A nd           | Web:      www.OpenFOAM.org                      |
|    \\/     M anipulation  |                                                 |
\*---------------------------------------------------------------------------*/
FoamFile
{
    version     2.0;
    format      ascii;
    class       volScalarField;
    location    "300";
    object      sigmayy;
}
// * * * * * * * * * * * * * * * * * * * * * * * * * * * * * * * * * * * * * //

dimensions      [0 2 -2 0 0 0 0];

internalField   nonuniform List<scalar> 
960
(
3.9452755e-09
-4.605385e-09
5.6640477e-09
5.5942728e-09
-6.08919e-09
-7.002902e-09
7.7961124e-09
7.4209491e-09
-7.4867e-09
-5.410783e-09
5.9153332e-09
5.8555548e-09
-5.0836529e-10
1.5085571e-09
-1.213401e-09
-9.894882e-10
7.5427049e-09
8.897445e-09
-8.6001626e-09
-8.3906769e-09
1.1130337e-08
1.2718863e-08
-1.2104314e-08
-1.2325029e-08
1.086441e-08
1.2646755e-08
-1.1722501e-08
-1.2366251e-08
8.2162081e-09
1.0044491e-08
-8.952864e-09
-9.864688e-09
4.9275573e-09
6.6307385e-09
-5.5566661e-09
-6.5419134e-09
2.1478794e-09
3.6432041e-09
-2.6862439e-09
-3.6315018e-09
2.412884e-10
1.5039483e-09
-7.0419025e-10
-1.5529176e-09
-9.2373608e-10
1.8369515e-10
5.2385127e-10
-2.7663341e-10
-1.5953494e-09
-5.8064826e-10
1.2483062e-09
4.5853158e-10
-1.9319926e-09
-9.5516575e-10
1.6289596e-09
8.1531537e-10
-2.0751627e-09
-1.0913995e-09
1.808161e-09
9.4165187e-10
-2.0678264e-09
-1.039832e-09
1.8296121e-09
8.8510463e-10
-1.9624114e-09
-8.6875791e-10
1.7464692e-09
7.1196164e-10
-1.8418686e-09
-6.867814e-10
1.642479e-09
5.2955e-10
-1.5997325e-09
-3.68756e-10
1.4120915e-09
2.1138363e-10
-1.3710749e-09
-5.3933934e-11
1.1913054e-09
-1.0441767e-10
-1.2859015e-09
2.3366722e-10
1.1111144e-09
-3.936214e-10
-1.3567003e-09
4.7609303e-10
1.1849739e-09
-6.3774559e-10
-1.3673152e-09
4.4005297e-10
1.1975115e-09
-6.0331736e-10
-1.4284786e-09
5.6394117e-10
1.2601179e-09
-7.2847134e-10
-1.5353165e-09
4.0326071e-10
1.368447e-09
-5.6844144e-10
-1.7907314e-09
1.8265664e-10
1.6257825e-09
-3.4760054e-10
-2.0738692e-09
-9.3123961e-11
1.9115372e-09
-7.0537498e-11
-2.3740352e-09
-4.1832121e-10
2.2151804e-09
2.5703991e-10
-2.6804581e-09
-7.8669041e-10
2.5260342e-09
6.2899407e-10
-2.9827571e-09
-1.3029465e-09
2.8337489e-09
1.1500953e-09
-3.3821643e-09
-1.8500991e-09
3.2395326e-09
1.703288e-09
-3.5368853e-09
-2.3112451e-09
3.401525e-09
2.1715719e-09
-3.7717404e-09
-3.0132551e-09
3.6444481e-09
2.8816825e-09
-3.857722e-09
-3.5060605e-09
3.7391725e-09
3.3833902e-09
-3.899736e-09
-4.1158272e-09
3.7904638e-09
4.0026975e-09
-3.4490773e-09
-4.9461931e-09
3.3494626e-09
4.843059e-09
-3.3898445e-09
-5.3233524e-09
3.3001087e-09
5.2304816e-09
-4.3857527e-09
-5.6822126e-09
4.3059585e-09
5.5996911e-09
-3.107839e-09
-6.0129699e-09
3.0378912e-09
5.9407133e-09
-2.8864482e-09
-6.3049455e-09
2.8261025e-09
6.2427162e-09
-2.6158265e-09
-7.6562033e-09
2.5647029e-09
7.603626e-09
-2.3020751e-09
-6.72584e-09
2.2596736e-09
6.6824202e-09
-1.9536794e-09
-6.8297106e-09
1.9193959e-09
6.7948552e-09
-4.7194143e-10
-7.9545447e-09
4.4508355e-10
7.9275818e-09
-1.1986434e-09
-6.758135e-09
1.1784483e-09
6.7383273e-09
2.8941172e-10
-7.6651716e-09
-3.0376283e-10
7.6517299e-09
6.4706548e-10
-7.333732e-09
-6.5643795e-10
7.3258195e-09
9.6673379e-10
-5.7513752e-09
-9.7203233e-10
5.748114e-09
1.2316867e-09
-5.1263726e-09
-1.2338485e-09
5.1268476e-09
1.4270489e-09
-3.231648e-09
-1.4270344e-09
3.2349072e-09
1.5416208e-09
-2.2833346e-09
-1.5403971e-09
2.2884021e-09
1.5700224e-09
-1.1771958e-09
-1.5685292e-09
1.1830975e-09
1.5149555e-09
1.1772394e-09
-1.5140408e-09
-1.1714203e-09
1.3892011e-09
3.6294937e-09
-1.3895081e-09
-3.6245137e-09
2.3263236e-09
4.9992003e-09
-2.3281153e-09
-4.9955113e-09
1.0319333e-09
7.3995846e-09
-1.0349293e-09
-7.397191e-09
8.7062348e-10
9.540987e-09
-8.741659e-10
-9.5399277e-09
7.4653991e-10
9.9069806e-09
-7.4976486e-10
-9.9047647e-09
5.9310839e-10
7.6754767e-09
-5.9299713e-10
-7.6757318e-09
1.5727526e-09
4.821273e-09
-1.5722843e-09
-4.8263214e-09
-4.9536899e-09
-4.8224649e-09
5.5085379e-09
5.153778e-09
-6.6462636e-09
-6.90514e-09
7.040801e-09
7.0636286e-09
-4.7914684e-09
-5.4587155e-09
5.2293724e-09
5.6114974e-09
2.3481726e-09
1.6289717e-09
-1.9474092e-09
-1.3731632e-09
9.4424484e-09
8.9898377e-09
-9.0613691e-09
-8.6807725e-09
1.2588897e-08
1.2720452e-08
-1.226533e-08
-1.2407097e-08
1.1953885e-08
1.2601839e-08
-1.170064e-08
-1.231526e-08
9.0205088e-09
9.9711074e-09
-8.8344311e-09
-9.7197061e-09
5.526469e-09
6.5647467e-09
-5.4036636e-09
-6.3552244e-09
2.6185481e-09
3.595697e-09
-2.553023e-09
-3.4312896e-09
6.0785784e-10
1.5019526e-09
-5.8722056e-10
-1.3806134e-09
-6.3904789e-10
1.9822635e-10
6.2815505e-10
-1.151034e-10
-1.3558048e-09
-5.4663775e-10
1.3229318e-09
5.9687629e-10
-1.7488846e-09
-9.078552e-10
1.7001004e-09
9.3023287e-10
-1.9278295e-09
-1.0344481e-09
1.867496e-09
1.0333772e-09
-1.9366363e-09
-9.8614777e-10
1.8679876e-09
9.6521379e-10
-1.7632043e-09
-8.1914423e-10
1.6877109e-09
7.809844e-10
-1.7697636e-09
-5.3063949e-10
1.6875616e-09
4.7663622e-10
-1.5404043e-09
-2.171819e-10
1.4511503e-09
1.4828189e-10
-1.4329857e-09
-1.7822734e-11
1.3362987e-09
-6.4255053e-11
-1.2453169e-09
2.6552359e-10
1.1409838e-09
-3.5910279e-10
-1.3232727e-09
5.040304e-10
1.2113104e-09
-6.0790154e-10
-1.3400605e-09
4.6436212e-10
1.220806e-09
-5.772373e-10
-1.4065872e-09
5.8487022e-10
1.2807268e-09
-7.0534527e-10
-1.5180832e-09
4.2104471e-10
1.3866071e-09
-5.4760751e-10
-1.7775242e-09
1.9745476e-10
1.6416807e-09
-3.2854499e-10
-2.0640981e-09
-8.1123288e-11
1.925335e-09
-5.2885475e-11
-2.3671339e-09
-4.0880394e-10
2.2270301e-09
2.7355382e-10
-2.675893e-09
-7.7941697e-10
2.536081e-09
6.4455052e-10
-2.980034e-09
-1.2977879e-09
2.8421307e-09
1.1648179e-09
-3.3808308e-09
-1.7359648e-09
3.2463821e-09
1.6063087e-09
-3.536532e-09
-2.3099092e-09
3.4069663e-09
2.1848656e-09
-3.7720037e-09
-3.0136156e-09
3.6485946e-09
2.8943451e-09
-3.8582853e-09
-3.5079598e-09
3.742125e-09
3.3954699e-09
-3.9003292e-09
-4.1191205e-09
3.792309e-09
4.0142371e-09
-4.5590357e-09
-4.9507361e-09
4.4598353e-09
4.8540979e-09
-4.4994253e-09
-5.3289866e-09
4.4095148e-09
5.241051e-09
-3.2756917e-09
-5.6887692e-09
3.1953383e-09
5.6098115e-09
-3.1067079e-09
-6.0202751e-09
3.0359841e-09
5.9503901e-09
-2.8846107e-09
-6.3128238e-09
2.8234104e-09
6.2519344e-09
-2.6132375e-09
-7.6644742e-09
2.561295e-09
7.6123481e-09
-2.2987208e-09
-6.7343179e-09
2.2556303e-09
6.6905844e-09
-1.9495743e-09
-6.8382031e-09
1.9148112e-09
6.8023717e-09
-4.6712627e-10
-7.9628516e-09
4.4006802e-10
7.9343286e-09
-1.1931903e-09
-6.7660453e-09
1.1731309e-09
6.7441521e-09
2.9539618e-10
-7.6724637e-09
-3.0923352e-10
7.6564496e-09
6.5343938e-10
-7.3401671e-09
-6.6189251e-10
7.3292214e-09
9.7331666e-10
-5.7566938e-09
-9.7727915e-10
5.7499534e-09
1.2382568e-09
-4.0207337e-09
-1.2386747e-09
4.0172888e-09
2.5429031e-09
-3.23386e-09
-2.5407684e-09
3.2327666e-09
1.5473373e-09
-2.2834895e-09
-1.5436702e-09
2.2837956e-09
1.5748317e-09
-1.1749095e-09
-1.5706406e-09
1.1757027e-09
1.5185239e-09
1.1823702e-09
-1.5147263e-09
-1.181885e-09
1.3912387e-09
3.637852e-09
-1.3885088e-09
-3.6382176e-09
1.2170858e-09
5.0110592e-09
-1.2156241e-09
-5.0123784e-09
2.1400625e-09
7.4147901e-09
-2.1394182e-09
-7.4166693e-09
8.6738357e-10
8.448734e-09
-8.669755e-10
-8.4501776e-09
7.4326985e-10
9.92147e-09
-7.3996894e-10
-9.9226761e-09
5.8963742e-10
7.6889043e-09
-5.8243816e-10
-7.682954e-09
1.5697889e-09
4.8341574e-09
-1.5632551e-09
-4.8198517e-09
-5.3597195e-09
-4.9795068e-09
5.6741227e-09
5.1789927e-09
-6.6748644e-09
-7.0578106e-09
7.5185398e-09
7.3846962e-09
-4.4872778e-09
-5.4208159e-09
5.5575721e-09
5.893597e-09
2.5665983e-09
1.5231163e-09
-1.5260292e-09
-9.6302083e-10
9.7011961e-09
8.9403554e-09
-8.8001396e-09
-8.3837973e-09
1.2917359e-08
1.2777116e-08
-1.2212929e-08
-1.2284412e-08
1.2259961e-08
1.2715521e-08
-1.175089e-08
-1.2307661e-08
9.2824033e-09
1.0118068e-08
-8.9377669e-09
-9.7980719e-09
5.7306117e-09
6.7053763e-09
-5.5151056e-09
-6.4727372e-09
2.7489091e-09
3.7157671e-09
-2.6307305e-09
-3.5629158e-09
6.91751e-10
1.5720643e-09
-6.4734332e-10
-1.4879004e-09
-5.9238439e-10
2.4541666e-10
5.8019238e-10
-2.1746835e-10
-1.3456326e-09
-5.2643821e-10
1.2923337e-09
5.1066315e-10
-1.7525257e-09
-9.0865873e-10
1.6723181e-09
8.602032e-10
-1.9384511e-09
-1.0522287e-09
1.8411561e-09
9.7968323e-10
-1.9636607e-09
-1.0074166e-09
1.8537621e-09
9.1673796e-10
-1.8942548e-09
-8.423877e-10
1.7743243e-09
7.374382e-10
-1.7921398e-09
-6.6563241e-10
1.6642872e-09
5.4959285e-10
-1.5635074e-09
-3.5198774e-10
1.4290555e-09
2.2747897e-10
-1.3446847e-09
-4.0764518e-11
1.204449e-09
-9.1279236e-11
-1.2666729e-09
2.4394712e-10
1.1212605e-09
-3.8319137e-10
-1.3426985e-09
4.8407124e-10
1.1927792e-09
-6.2968834e-10
-1.3571075e-09
4.461913e-10
1.2035049e-09
-5.9716609e-10
-1.4210229e-09
5.686252e-10
1.2647078e-09
-7.2380839e-10
-1.5298602e-09
4.0679427e-10
1.3719501e-09
-5.6492615e-10
-1.786729e-09
1.8528561e-10
1.6284545e-09
-3.4496385e-10
-2.0709245e-09
-9.1152612e-11
1.9135774e-09
-6.8568989e-11
-2.3718595e-09
-4.1680969e-10
2.2167407e-09
2.5850268e-10
-2.6788444e-09
-7.8554033e-10
2.5272286e-09
6.3007717e-10
-2.9815563e-09
-1.3020927e-09
2.8346633e-09
1.1508939e-09
-3.3812685e-09
-1.8494703e-09
3.2402329e-09
1.7038738e-09
-3.5362154e-09
-2.3107842e-09
3.4020611e-09
2.1720011e-09
-3.7712385e-09
-3.0129221e-09
3.6448583e-09
2.881996e-09
-3.8573454e-09
-3.5058202e-09
3.7394862e-09
3.3836191e-09
-3.899453e-09
-4.1156514e-09
3.7907035e-09
4.0028631e-09
-3.4488645e-09
-4.9460627e-09
3.3496456e-09
4.8431791e-09
-3.3896845e-09
-5.3232568e-09
3.300248e-09
5.2305698e-09
-4.3856328e-09
-5.6821431e-09
4.306064e-09
5.5997554e-09
-3.1077495e-09
-6.012919e-09
3.0379707e-09
5.940761e-09
-2.8863816e-09
-6.3049079e-09
2.826162e-09
6.2427517e-09
-2.6157774e-09
-7.6561752e-09
2.5647472e-09
7.6036527e-09
-2.3020391e-09
-6.7258186e-09
2.2597064e-09
6.6824407e-09
-1.9536532e-09
-6.8296941e-09
1.9194198e-09
6.7948711e-09
-4.7192257e-10
-7.9545319e-09
4.4510078e-10
7.9275943e-09
-1.1986301e-09
-6.7581249e-09
1.1784605e-09
6.7383374e-09
2.8942094e-10
-7.665164e-09
-3.037542e-10
7.6517376e-09
6.4707187e-10
-7.333726e-09
-6.5643188e-10
7.3258263e-09
9.6673815e-10
-5.7513698e-09
-9.7202821e-10
5.7481194e-09
1.2316895e-09
-5.1263676e-09
-1.2338457e-09
5.1268516e-09
1.4270507e-09
-3.2316435e-09
-1.4270325e-09
3.2349108e-09
1.541622e-09
-2.2833312e-09
-1.5403958e-09
2.2884045e-09
1.570023e-09
-1.1771944e-09
-1.5685282e-09
1.1830997e-09
1.514956e-09
1.1772397e-09
-1.51404e-09
-1.1714182e-09
1.3892016e-09
3.6294947e-09
-1.3895076e-09
-3.6245118e-09
2.3263239e-09
4.9992012e-09
-2.3281148e-09
-4.9955103e-09
1.0319335e-09
7.3995855e-09
-1.0349289e-09
-7.397191e-09
8.7062362e-10
9.5409883e-09
-8.7416559e-10
-9.5399272e-09
7.4653986e-10
9.9069813e-09
-7.4976465e-10
-9.9047638e-09
5.9310828e-10
7.6754772e-09
-5.9299712e-10
-7.6757313e-09
1.5727527e-09
4.8212733e-09
-1.5722844e-09
-4.8263213e-09
-4.9629274e-09
-4.8467872e-09
5.4640753e-09
5.1295764e-09
-6.662722e-09
-6.909938e-09
7.0373407e-09
7.0525415e-09
-4.7994332e-09
-5.4493202e-09
5.2425536e-09
5.6174911e-09
2.3494641e-09
1.6346146e-09
-1.9464791e-09
-1.3638563e-09
9.4496776e-09
8.9935515e-09
-9.065392e-09
-8.672867e-09
1.261563e-08
1.2722207e-08
-1.2294508e-08
-1.2402164e-08
1.1952051e-08
1.2601397e-08
-1.1709293e-08
-1.2312918e-08
9.0148461e-09
9.9687533e-09
-8.843746e-09
-9.7197712e-09
5.5212793e-09
6.5612195e-09
-5.4127516e-09
-6.356911e-09
2.6137258e-09
3.5918953e-09
-2.5613281e-09
-3.433803e-09
6.0144605e-10
1.4982924e-09
-5.9513871e-10
-1.3834327e-09
-6.4640964e-10
1.9494555e-10
6.2024614e-10
-1.1782478e-10
-1.3626133e-09
-5.4935492e-10
1.3156106e-09
5.9454718e-10
-1.7547911e-09
-9.099623e-10
1.6938655e-09
9.2842605e-10
-1.9331069e-09
-1.0359957e-09
1.8623087e-09
1.0321041e-09
-1.9412396e-09
-9.872189e-10
1.863743e-09
9.6437975e-10
-1.7669689e-09
-8.1983935e-10
1.6843049e-09
7.8043959e-10
-1.7727523e-09
-5.3106262e-10
1.6848868e-09
4.7634772e-10
-1.5427195e-09
-2.1741637e-10
1.449096e-09
1.4824234e-10
-1.4347325e-09
-1.7935011e-11
1.3347562e-09
-6.4186848e-11
-1.2466012e-09
2.6547979e-10
1.1398495e-09
-3.5902642e-10
-1.3241929e-09
5.0401703e-10
1.2104986e-09
-6.0782277e-10
-1.3406974e-09
4.643563e-10
1.2202463e-09
-5.7717538e-10
-1.4070099e-09
5.8485995e-10
1.2803565e-09
-7.0531014e-10
-1.5183468e-09
4.2103453e-10
1.386377e-09
-5.4759939e-10
-1.7776715e-09
1.974418e-10
1.6415521e-09
-3.2856145e-10
-2.0641654e-09
-8.1157075e-11
1.9252774e-09
-5.2921557e-11
-2.3671476e-09
-4.0885821e-10
2.2270202e-09
2.7350314e-10
-2.6758719e-09
-7.7947972e-10
2.5361018e-09
6.4449129e-10
-2.9799918e-09
-1.2978529e-09
2.8421702e-09
1.1647539e-09
-3.3807773e-09
-1.7360299e-09
3.2464315e-09
1.6062423e-09
-3.5364741e-09
-2.3099722e-09
3.4070194e-09
2.1848014e-09
-3.7719461e-09
-3.0136722e-09
3.6486475e-09
2.894286e-09
-3.8582309e-09
-3.5080099e-09
3.7421748e-09
3.3954158e-09
-3.9002799e-09
-4.1191656e-09
3.792354e-09
4.014188e-09
-4.5589925e-09
-4.9507773e-09
4.4598747e-09
4.8540554e-09
-4.4993883e-09
-5.3290217e-09
4.4095484e-09
5.2410153e-09
-3.2756609e-09
-5.6887973e-09
3.1953662e-09
5.6097816e-09
-3.1066828e-09
-6.0202983e-09
3.0360067e-09
5.9503659e-09
-2.8845908e-09
-6.3128422e-09
2.8234284e-09
6.2519153e-09
-2.6132221e-09
-7.6644884e-09
2.5613089e-09
7.6123334e-09
-2.2987092e-09
-6.7343285e-09
2.2556406e-09
6.6905735e-09
-1.9495659e-09
-6.8382108e-09
1.9148186e-09
6.8023639e-09
-4.6712049e-10
-7.9628568e-09
4.4007303e-10
7.9343234e-09
-1.1931865e-09
-6.7660487e-09
1.173134e-09
6.7441482e-09
2.9539837e-10
-7.6724654e-09
-3.0923177e-10
7.6564482e-09
6.5344048e-10
-7.3401679e-09
-6.6189176e-10
7.3292213e-09
9.733169e-10
-5.7566948e-09
-9.7727903e-10
5.7499532e-09
1.2382565e-09
-4.0207338e-09
-1.2386748e-09
4.0172884e-09
2.5429025e-09
-3.2338594e-09
-2.5407688e-09
3.232767e-09
1.5473365e-09
-2.2834881e-09
-1.5436708e-09
2.2837967e-09
1.5748309e-09
-1.1749083e-09
-1.5706412e-09
1.1757029e-09
1.5185232e-09
1.1823703e-09
-1.5147268e-09
-1.181885e-09
1.3912382e-09
3.637853e-09
-1.3885091e-09
-3.6382176e-09
1.2170854e-09
5.0110602e-09
-1.2156244e-09
-5.0123776e-09
2.140062e-09
7.4147901e-09
-2.1394184e-09
-7.4166677e-09
8.6738303e-10
8.4487342e-09
-8.6697573e-10
-8.4501773e-09
7.4326913e-10
9.9214706e-09
-7.3996926e-10
-9.9226764e-09
5.8963683e-10
7.6889049e-09
-5.824385e-10
-7.6829536e-09
1.5697888e-09
4.8341578e-09
-1.5632553e-09
-4.8198516e-09
)
;

boundaryField
{
    movingWall
    {
        type            calculated;
        value           nonuniform List<scalar> 
16
(
1.5428352e-09
1.5414918e-09
1.5428354e-09
1.5414918e-09
4.1428729e-09
4.1529065e-09
4.142873e-09
4.1529068e-09
-1.5449387e-09
-1.5366014e-09
-1.5449388e-09
-1.5366017e-09
-4.1483373e-09
-4.1377251e-09
-4.1483374e-09
-4.1377251e-09
)
;
    }
    CPLReceiveMD
    {
        type            calculated;
        value           nonuniform List<scalar> 
16
(
9.6163991e-09
-4.3750862e-09
-5.0528015e-09
-4.3829412e-09
-3.882865e-09
-4.3202726e-09
-4.5395547e-09
-4.3473342e-09
5.1993341e-09
5.1731767e-09
5.2485337e-09
5.1242294e-09
5.4178814e-09
4.7535607e-09
4.7052897e-09
4.7305842e-09
)
;
    }
    streamwiseIn
    {
        type            cyclic;
    }
    streamwiseOut
    {
        type            cyclic;
    }
    front
    {
        type            cyclic;
    }
    back
    {
        type            cyclic;
    }
}


// ************************************************************************* //
