/*--------------------------------*- C++ -*----------------------------------*\
| =========                 |                                                 |
| \\      /  F ield         | OpenFOAM: The Open Source CFD Toolbox           |
|  \\    /   O peration     | Version:  3.0.x                                 |
|   \\  /    A nd           | Web:      www.OpenFOAM.org                      |
|    \\/     M anipulation  |                                                 |
\*---------------------------------------------------------------------------*/
FoamFile
{
    version     2.0;
    format      ascii;
    class       volScalarField;
    location    "300";
    object      sigmaxy;
}
// * * * * * * * * * * * * * * * * * * * * * * * * * * * * * * * * * * * * * //

dimensions      [0 2 -2 0 0 0 0];

internalField   nonuniform List<scalar> 
960
(
-0.024380264
-0.024380234
-0.024380236
-0.024380263
-0.0056715691
-0.0056715633
-0.0056715639
-0.0056715675
-0.00061910652
-0.00061912129
-0.00061912046
-0.0006191049
0.0012215429
0.0012215168
0.0012215178
0.0012215439
0.0019366082
0.0019365867
0.0019365882
0.0019366075
0.0020054527
0.0020054431
0.0020054444
0.0020054514
0.0018045473
0.0018045472
0.0018045483
0.0018045463
0.0015882253
0.0015882293
0.00158823
0.0015882248
0.0014579475
0.0014579506
0.0014579509
0.0014579475
0.00142433
0.0014243297
0.0014243297
0.0014243303
0.0014679584
0.0014679544
0.0014679543
0.0014679586
0.0015688871
0.0015688805
0.0015688801
0.0015688871
0.001714064
0.0017140558
0.0017140552
0.0017140637
0.001896061
0.0018960519
0.0018960511
0.0018960605
0.0021104222
0.0021104127
0.0021104118
0.0021104216
0.0023539645
0.0023539544
0.0023539537
0.0023539633
0.0026241236
0.0026241144
0.002624113
0.002624123
0.0029188799
0.0029188708
0.002918869
0.0029188795
0.0032368489
0.0032368386
0.0032368374
0.0032368476
0.0035773381
0.0035773286
0.0035773265
0.0035773367
0.0039403125
0.0039403038
0.0039403008
0.0039403103
0.0043262696
0.0043262615
0.004326259
0.0043262677
0.0047360757
0.0047360676
0.0047360649
0.0047360743
0.0051707865
0.0051707784
0.0051707754
0.0051707848
0.0056314889
0.0056314815
0.005631479
0.0056314871
0.0061191706
0.0061191639
0.0061191604
0.0061191685
0.0066346181
0.0066346115
0.0066346077
0.0066346157
0.0071783492
0.0071783428
0.0071783388
0.0071783465
0.0077505634
0.0077505586
0.0077505536
0.0077505618
0.008351118
0.0083511135
0.008351109
0.0083511155
0.0089795064
0.0089795018
0.008979497
0.0089795037
0.0096348522
0.0096348487
0.0096348438
0.0096348506
0.010315912
0.010315909
0.010315904
0.01031591
0.011021072
0.011021069
0.011021064
0.01102107
0.011748351
0.011748351
0.011748346
0.011748354
0.012495424
0.012495423
0.012495418
0.012495425
0.013259609
0.013259613
0.013259602
0.013259604
0.014037908
0.014037906
0.014037902
0.014037903
0.014827005
0.014826998
0.014827001
0.014827001
0.015623289
0.015623297
0.015623293
0.015623292
0.016422915
0.016422924
0.016422914
0.016422919
0.017221775
0.017221778
0.017221769
0.017221773
0.018015556
0.01801556
0.018015564
0.018015561
0.018799825
0.01879983
0.018799829
0.018799824
0.019569987
0.019569992
0.019569992
0.019569987
0.020321364
0.02032137
0.020321377
0.020321371
0.021049287
0.021049287
0.021049289
0.021049281
0.021749046
0.021749054
0.02174905
0.021749048
0.022416032
0.02241604
0.022416037
0.022416035
0.02304574
0.023045741
0.023045745
0.023045737
0.023633803
0.023633812
0.023633816
0.023633808
0.024176108
0.02417611
0.024176115
0.024176107
0.024668758
0.024668759
0.024668757
0.024668756
0.025108171
0.025108172
0.025108177
0.025108176
0.025491139
0.025491133
0.025491144
0.025491131
0.025814795
0.025814794
0.025814792
0.025814786
0.026076709
0.026076713
0.026076709
0.026076712
0.026274911
0.026274914
0.026274922
0.026274913
0.026407896
0.026407891
0.026407911
0.026407897
0.02647464
0.026474647
0.02647466
0.02647464
-0.02438026
-0.024380231
-0.024380232
-0.024380259
-0.0056715665
-0.005671561
-0.0056715619
-0.0056715652
-0.00061910609
-0.00061911998
-0.0006191199
-0.00061910535
0.0012215423
0.0012215169
0.0012215171
0.0012215426
0.0019366056
0.0019365854
0.0019365862
0.0019366039
0.00200545
0.0020054414
0.0020054421
0.0020054479
0.0018045454
0.0018045459
0.0018045465
0.0018045439
0.0015882243
0.0015882287
0.001588229
0.0015882235
0.0014579473
0.0014579506
0.0014579506
0.0014579472
0.0014243303
0.00142433
0.0014243298
0.0014243304
0.0014679588
0.0014679549
0.0014679544
0.0014679588
0.0015688874
0.0015688808
0.0015688803
0.0015688872
0.0017140642
0.001714056
0.0017140553
0.0017140638
0.0018960612
0.0018960521
0.0018960512
0.0018960606
0.0021104224
0.0021104128
0.0021104118
0.0021104217
0.0023539644
0.0023539544
0.0023539536
0.0023539639
0.0026241242
0.0026241144
0.0026241129
0.0026241228
0.0029188806
0.0029188708
0.002918869
0.0029188788
0.0032368482
0.0032368393
0.0032368373
0.0032368476
0.0035773375
0.0035773286
0.0035773265
0.0035773367
0.0039403126
0.0039403031
0.0039403008
0.0039403103
0.0043262696
0.0043262615
0.004326259
0.0043262677
0.0047360757
0.0047360676
0.0047360649
0.0047360743
0.0051707865
0.0051707784
0.0051707754
0.0051707848
0.005631489
0.0056314815
0.005631479
0.0056314871
0.0061191706
0.0061191639
0.0061191604
0.0061191685
0.0066346181
0.0066346115
0.0066346077
0.0066346157
0.0071783492
0.0071783428
0.0071783388
0.0071783465
0.0077505634
0.0077505586
0.0077505536
0.0077505618
0.008351118
0.0083511135
0.0083511084
0.0083511155
0.0089795064
0.0089795018
0.008979497
0.0089795037
0.0096348522
0.0096348487
0.0096348444
0.0096348506
0.010315912
0.010315909
0.010315904
0.01031591
0.011021072
0.011021069
0.011021064
0.01102107
0.011748352
0.011748352
0.011748346
0.011748348
0.012495424
0.012495423
0.012495419
0.012495419
0.013259609
0.013259606
0.013259602
0.013259611
0.014037908
0.014037906
0.014037902
0.01403791
0.014827005
0.014827005
0.014827001
0.014827001
0.015623289
0.015623297
0.015623293
0.015623292
0.016422915
0.016422924
0.016422914
0.016422919
0.017221775
0.017221778
0.017221769
0.017221773
0.018015556
0.01801556
0.018015565
0.018015561
0.018799825
0.01879983
0.018799829
0.018799824
0.019569987
0.019569992
0.019569992
0.019569987
0.020321364
0.02032137
0.020321377
0.020321371
0.021049287
0.021049287
0.021049289
0.021049281
0.021749053
0.021749054
0.02174905
0.021749048
0.022416032
0.02241604
0.022416037
0.022416042
0.023045733
0.023045741
0.023045745
0.023045737
0.023633803
0.023633812
0.023633816
0.023633801
0.024176108
0.02417611
0.024176115
0.024176107
0.024668758
0.024668759
0.024668757
0.024668756
0.025108171
0.025108178
0.025108177
0.025108176
0.025491139
0.025491133
0.025491144
0.025491138
0.025814795
0.025814787
0.025814798
0.025814786
0.026076709
0.026076713
0.026076709
0.026076705
0.026274911
0.026274914
0.026274916
0.026274913
0.026407896
0.026407891
0.026407911
0.026407897
0.02647464
0.026474647
0.02647466
0.02647464
-0.024380264
-0.024380234
-0.024380236
-0.024380263
-0.0056715691
-0.0056715628
-0.0056715639
-0.0056715679
-0.00061910653
-0.00061912049
-0.00061912045
-0.00061910576
0.001221543
0.0012215176
0.0012215178
0.0012215432
0.0019366082
0.0019365874
0.0019365882
0.0019366067
0.0020054527
0.0020054437
0.0020054444
0.0020054507
0.0018045473
0.0018045478
0.0018045483
0.0018045458
0.0015882253
0.0015882297
0.00158823
0.0015882245
0.0014579475
0.0014579508
0.0014579509
0.0014579473
0.00142433
0.0014243298
0.0014243297
0.0014243301
0.0014679584
0.0014679546
0.0014679543
0.0014679585
0.0015688871
0.0015688807
0.0015688801
0.001568887
0.001714064
0.0017140559
0.0017140552
0.0017140637
0.001896061
0.001896052
0.0018960511
0.0018960605
0.0021104222
0.0021104128
0.0021104118
0.0021104216
0.0023539645
0.0023539544
0.0023539537
0.0023539633
0.0026241236
0.0026241144
0.002624113
0.0026241229
0.0029188799
0.0029188708
0.002918869
0.0029188795
0.0032368489
0.0032368386
0.0032368374
0.0032368476
0.0035773381
0.0035773286
0.0035773265
0.0035773367
0.0039403125
0.0039403038
0.0039403008
0.0039403103
0.0043262696
0.0043262615
0.004326259
0.0043262677
0.0047360757
0.0047360676
0.0047360649
0.0047360743
0.0051707865
0.0051707784
0.0051707754
0.0051707848
0.0056314889
0.0056314815
0.005631479
0.0056314871
0.0061191706
0.0061191639
0.0061191604
0.0061191685
0.0066346181
0.0066346115
0.0066346077
0.0066346157
0.0071783492
0.0071783428
0.0071783388
0.0071783465
0.0077505634
0.0077505586
0.0077505536
0.0077505618
0.008351118
0.0083511135
0.008351109
0.0083511155
0.0089795064
0.0089795018
0.008979497
0.0089795037
0.0096348522
0.0096348487
0.0096348438
0.0096348506
0.010315912
0.010315909
0.010315904
0.01031591
0.011021072
0.011021069
0.011021064
0.01102107
0.011748351
0.011748351
0.011748346
0.011748354
0.012495424
0.012495423
0.012495418
0.012495425
0.013259609
0.013259613
0.013259602
0.013259604
0.014037908
0.014037906
0.014037902
0.014037903
0.014827005
0.014826998
0.014827001
0.014827001
0.015623289
0.015623297
0.015623293
0.015623292
0.016422915
0.016422924
0.016422914
0.016422919
0.017221775
0.017221778
0.017221769
0.017221773
0.018015556
0.01801556
0.018015564
0.018015561
0.018799825
0.01879983
0.018799829
0.018799824
0.019569987
0.019569992
0.019569992
0.019569987
0.020321364
0.02032137
0.020321377
0.020321371
0.021049287
0.021049287
0.021049289
0.021049281
0.021749046
0.021749054
0.02174905
0.021749048
0.022416032
0.02241604
0.022416037
0.022416035
0.02304574
0.023045741
0.023045745
0.023045737
0.023633803
0.023633812
0.023633816
0.023633808
0.024176108
0.02417611
0.024176115
0.024176107
0.024668758
0.024668759
0.024668757
0.024668756
0.025108171
0.025108172
0.025108177
0.025108176
0.025491139
0.025491133
0.025491144
0.025491131
0.025814795
0.025814794
0.025814792
0.025814786
0.026076709
0.026076713
0.026076709
0.026076712
0.026274911
0.026274914
0.026274922
0.026274913
0.026407896
0.026407891
0.026407911
0.026407897
0.02647464
0.026474647
0.02647466
0.02647464
-0.02438026
-0.024380231
-0.024380232
-0.024380259
-0.0056715665
-0.0056715609
-0.0056715619
-0.0056715652
-0.00061910609
-0.00061911998
-0.0006191199
-0.00061910535
0.0012215423
0.0012215169
0.0012215171
0.0012215426
0.0019366056
0.0019365853
0.0019365862
0.0019366039
0.00200545
0.0020054414
0.0020054421
0.0020054479
0.0018045454
0.001804546
0.0018045465
0.0018045438
0.0015882243
0.0015882287
0.001588229
0.0015882235
0.0014579473
0.0014579506
0.0014579506
0.0014579472
0.0014243303
0.00142433
0.0014243298
0.0014243304
0.0014679588
0.0014679549
0.0014679544
0.0014679588
0.0015688874
0.0015688808
0.0015688803
0.0015688872
0.0017140642
0.001714056
0.0017140553
0.0017140638
0.0018960612
0.0018960521
0.0018960512
0.0018960606
0.0021104224
0.0021104128
0.0021104118
0.0021104217
0.0023539644
0.0023539544
0.0023539536
0.0023539639
0.0026241242
0.0026241144
0.0026241129
0.0026241228
0.0029188806
0.0029188708
0.002918869
0.0029188788
0.0032368482
0.0032368393
0.0032368373
0.0032368476
0.0035773375
0.0035773286
0.0035773265
0.0035773367
0.0039403126
0.0039403031
0.0039403008
0.0039403103
0.0043262696
0.0043262615
0.004326259
0.0043262677
0.0047360757
0.0047360676
0.0047360649
0.0047360743
0.0051707865
0.0051707784
0.0051707754
0.0051707848
0.005631489
0.0056314815
0.005631479
0.0056314871
0.0061191706
0.0061191639
0.0061191604
0.0061191685
0.0066346181
0.0066346115
0.0066346077
0.0066346157
0.0071783492
0.0071783428
0.0071783388
0.0071783465
0.0077505634
0.0077505586
0.0077505536
0.0077505618
0.008351118
0.0083511135
0.0083511084
0.0083511155
0.0089795064
0.0089795018
0.008979497
0.0089795037
0.0096348522
0.0096348487
0.0096348444
0.0096348506
0.010315912
0.010315909
0.010315904
0.01031591
0.011021072
0.011021069
0.011021064
0.01102107
0.011748352
0.011748352
0.011748346
0.011748348
0.012495424
0.012495423
0.012495419
0.012495419
0.013259609
0.013259606
0.013259602
0.013259611
0.014037908
0.014037906
0.014037902
0.01403791
0.014827005
0.014827005
0.014827001
0.014827001
0.015623289
0.015623297
0.015623293
0.015623292
0.016422915
0.016422924
0.016422914
0.016422919
0.017221775
0.017221778
0.017221769
0.017221773
0.018015556
0.01801556
0.018015565
0.018015561
0.018799825
0.01879983
0.018799829
0.018799824
0.019569987
0.019569992
0.019569992
0.019569987
0.020321364
0.02032137
0.020321377
0.020321371
0.021049287
0.021049287
0.021049289
0.021049281
0.021749053
0.021749054
0.02174905
0.021749048
0.022416032
0.02241604
0.022416037
0.022416042
0.023045733
0.023045741
0.023045745
0.023045737
0.023633803
0.023633812
0.023633816
0.023633801
0.024176108
0.02417611
0.024176115
0.024176107
0.024668758
0.024668759
0.024668757
0.024668756
0.025108171
0.025108178
0.025108177
0.025108176
0.025491139
0.025491133
0.025491144
0.025491138
0.025814795
0.025814787
0.025814798
0.025814786
0.026076709
0.026076713
0.026076709
0.026076705
0.026274911
0.026274914
0.026274916
0.026274913
0.026407896
0.026407891
0.026407911
0.026407897
0.02647464
0.026474647
0.02647466
0.02647464
)
;

boundaryField
{
    movingWall
    {
        type            calculated;
        value           nonuniform List<scalar> 
16
(
0.02649135
0.02649135
0.02649135
0.02649135
0.026491377
0.026491377
0.026491377
0.026491377
0.026491377
0.026491377
0.026491377
0.026491377
0.02649135
0.02649135
0.02649135
0.02649135
)
;
    }
    CPLReceiveMD
    {
        type            calculated;
        value           nonuniform List<scalar> 
16
(
-0.039306756
-0.039306754
-0.039306756
-0.039306754
-0.039306711
-0.039306708
-0.039306711
-0.039306708
-0.039306712
-0.039306709
-0.039306712
-0.039306709
-0.039306756
-0.039306753
-0.039306756
-0.039306753
)
;
    }
    streamwiseIn
    {
        type            cyclic;
    }
    streamwiseOut
    {
        type            cyclic;
    }
    front
    {
        type            cyclic;
    }
    back
    {
        type            cyclic;
    }
}


// ************************************************************************* //
