/*--------------------------------*- C++ -*----------------------------------*\
| =========                 |                                                 |
| \\      /  F ield         | OpenFOAM: The Open Source CFD Toolbox           |
|  \\    /   O peration     | Version:  3.0.x                                 |
|   \\  /    A nd           | Web:      www.OpenFOAM.org                      |
|    \\/     M anipulation  |                                                 |
\*---------------------------------------------------------------------------*/
FoamFile
{
    version     2.0;
    format      ascii;
    class       volScalarField;
    location    "300";
    object      sigmazz;
}
// * * * * * * * * * * * * * * * * * * * * * * * * * * * * * * * * * * * * * //

dimensions      [0 2 -2 0 0 0 0];

internalField   nonuniform List<scalar> 
960
(
-4.78742e-09
-5.267154e-10
2.3774829e-11
-1.3412784e-10
-1.370018e-09
-9.3831397e-10
9.2712347e-10
6.3414529e-10
2.7441797e-10
-8.7302866e-10
1.030666e-09
6.4593028e-10
5.5864864e-10
-6.5397533e-10
8.4761745e-10
4.5761728e-10
2.8528813e-10
-5.555691e-10
7.3099335e-10
3.9599811e-10
2.226106e-10
-4.834327e-10
6.6307834e-10
3.8559292e-10
2.1079312e-10
-3.8432261e-10
5.2991395e-10
3.3661756e-10
1.5640669e-10
-3.1530912e-10
4.5053646e-10
3.0741299e-10
1.0940958e-10
-2.586001e-10
3.8632449e-10
2.8496154e-10
5.9951153e-11
-2.1000278e-10
3.4631722e-10
2.6418375e-10
2.1182746e-11
-1.9394796e-10
3.1385678e-10
2.6862254e-10
-1.5150111e-11
-1.7075934e-10
2.9330794e-10
2.5862914e-10
-6.0030773e-11
-1.7530416e-10
2.9253636e-10
2.7007172e-10
-8.5591377e-11
-1.7448005e-10
2.8145762e-10
2.7151068e-10
-1.219058e-10
-1.9240406e-10
2.886323e-10
2.88816e-10
-1.4813755e-10
-2.0387521e-10
2.9209195e-10
2.9817673e-10
-1.7190275e-10
-2.2473054e-10
2.9843671e-10
3.1633244e-10
-2.3535774e-10
-3.172325e-10
3.4891311e-10
4.0606135e-10
-1.923205e-10
-3.1100824e-10
2.9649081e-10
3.9751407e-10
-1.4191908e-10
-3.0292154e-10
2.3953447e-10
3.8803051e-10
-1.8575082e-10
-2.810147e-10
2.7892401e-10
3.654636e-10
-3.176957e-10
-2.3635211e-10
4.0788596e-10
3.2053071e-10
-3.1305484e-10
-3.8519159e-10
4.0120116e-10
4.6932575e-10
-2.8296215e-10
-2.8102358e-10
3.695798e-10
3.6514903e-10
-2.2990302e-10
-3.6735936e-10
3.15172e-10
4.5132887e-10
-2.6889508e-10
-4.2367243e-10
3.5275218e-10
5.0716434e-10
-2.9395687e-10
-4.5235269e-10
3.7616626e-10
5.349349e-10
-3.1045424e-10
-4.5629121e-10
3.906693e-10
5.3748295e-10
-3.23786e-10
-4.3861686e-10
4.0159245e-10
5.1786847e-10
-3.391523e-10
-5.1341265e-10
4.1410475e-10
5.9013366e-10
-4.7237804e-10
-5.7274498e-10
5.4403147e-10
6.4636731e-10
-3.950637e-10
-5.0863541e-10
4.6299737e-10
5.7863167e-10
-4.4410486e-10
-6.5695374e-10
5.0794079e-10
7.2285839e-10
-4.0114021e-10
-5.7700044e-10
4.6055636e-10
6.3842403e-10
-3.8015291e-10
-6.0499653e-10
4.3489374e-10
6.6162782e-10
6.0239025e-11
-8.5555792e-10
-1.0354592e-11
9.0717544e-10
3.0611517e-11
-6.6698434e-10
1.4312608e-11
7.1345849e-10
-1.1357828e-09
-4.8755868e-10
1.1757206e-09
5.2884955e-10
-1.1040556e-10
-3.2218338e-10
1.4540861e-10
3.583353e-10
-2.2110544e-10
-1.7619808e-10
2.5129893e-10
2.0733144e-10
-3.5641954e-10
-1.1649113e-09
3.8199577e-10
1.1912148e-09
-5.1329755e-10
3.4245726e-11
5.3450826e-10
-1.2523906e-11
-6.8749706e-10
8.6179794e-11
7.0464561e-10
-6.8742578e-11
2.3597297e-10
-1.0157443e-09
-2.2253942e-10
1.0292333e-09
-1.065017e-09
5.0390259e-11
1.0751176e-09
-4.04804e-11
-1.447049e-10
-1.1604323e-09
1.5188254e-10
1.1671578e-09
-3.235321e-10
-1.3261526e-09
3.2821977e-10
1.3301125e-09
-4.8336647e-10
-4.5299129e-10
4.8601675e-10
4.5462466e-10
-6.1584307e-10
-7.6549296e-10
6.1692468e-10
7.6525752e-10
-7.1352421e-10
-4.8515355e-11
7.1351757e-10
4.688728e-11
-7.7081021e-10
-5.226723e-10
7.7019889e-10
5.2013962e-10
-7.8501102e-10
-1.0757419e-09
7.8426489e-10
1.0727917e-09
-7.5747755e-10
-5.8861944e-10
7.5702068e-10
5.8571036e-10
-6.946004e-10
-1.5040653e-10
6.947543e-10
1.4791681e-10
5.0117854e-10
-8.3525992e-10
-5.0028228e-10
8.3341554e-10
-5.1596653e-10
-3.7111198e-10
5.1746489e-10
3.6991522e-10
-4.3531161e-10
2.2252693e-10
4.3708314e-10
-2.230566e-10
-3.7326986e-10
3.9530117e-11
3.7488257e-10
-4.063812e-11
-2.9655416e-10
-5.0905802e-10
2.9649865e-10
5.0918561e-10
8.779639e-10
-7.4629634e-10
-8.7819796e-10
7.4882049e-10
-3.4179474e-10
-3.7048446e-10
4.9931834e-11
2.0195441e-10
-7.7663653e-10
-6.9413346e-10
5.6484846e-10
6.1168873e-10
-9.8873292e-10
-7.5200008e-10
7.5445603e-10
6.7128674e-10
-6.6480091e-10
-5.5133222e-10
4.4819322e-10
4.1819838e-10
-6.0076793e-10
-5.3690041e-10
3.9403331e-10
3.7696588e-10
-5.4286597e-10
-5.2120851e-10
3.6579827e-10
3.5953785e-10
-4.2460346e-10
-4.4483388e-10
2.8416491e-10
2.9727217e-10
-3.4365598e-10
-3.9222608e-10
2.3847362e-10
2.6309922e-10
-2.8194412e-10
-3.3962013e-10
2.100399e-10
2.3225266e-10
-2.3195676e-10
-3.0101691e-10
1.9032281e-10
2.1692822e-10
-2.0779216e-10
-2.6907079e-10
1.9021216e-10
2.0711417e-10
-1.994184e-10
-2.4940801e-10
1.9908151e-10
2.0702187e-10
-1.8991714e-10
-2.429498e-10
2.0183829e-10
2.1733707e-10
-1.9255762e-10
-2.2865175e-10
2.1349685e-10
2.1718927e-10
-2.0248297e-10
-2.3185082e-10
2.3008253e-10
2.3224356e-10
-1.9770556e-10
-2.3931324e-10
2.3017325e-10
2.4970471e-10
-1.1769328e-10
-2.562203e-10
1.5413996e-10
2.7524871e-10
-2.8062176e-10
-2.3403215e-10
3.208489e-10
2.6097892e-10
-2.2869775e-10
-2.2432876e-10
2.7277024e-10
2.5870337e-10
-2.8228333e-10
-3.2401379e-10
3.303051e-10
3.6495556e-10
-2.0959572e-10
-2.9925905e-10
2.6160606e-10
3.4593173e-10
-3.3699144e-10
-2.5208335e-10
3.929298e-10
3.0388699e-10
-3.285581e-10
-3.9868616e-10
3.8821661e-10
4.5498287e-10
-2.9527056e-10
-2.9250688e-10
3.5827732e-10
3.5260057e-10
-2.3950953e-10
-3.7702676e-10
3.0534846e-10
4.4016659e-10
-2.762178e-10
-4.316626e-10
3.442502e-10
4.9707269e-10
-2.9936474e-10
-4.5880206e-10
3.6885699e-10
5.2568206e-10
-3.1428406e-10
-4.6138931e-10
3.8444045e-10
5.2890265e-10
-3.2634369e-10
-4.4250997e-10
3.9634434e-10
5.0984512e-10
-3.4071334e-10
-5.1618569e-10
4.0974793e-10
5.825864e-10
-4.7318944e-10
-4.6352463e-10
5.4048443e-10
5.282818e-10
-3.9534521e-10
-5.0941437e-10
4.6018665e-10
5.7187776e-10
-4.4404927e-10
-6.5685768e-10
5.058012e-10
7.1644581e-10
-4.0091375e-10
-5.7611469e-10
4.590313e-10
6.3232251e-10
-3.7989638e-10
-6.0339808e-10
4.3393521e-10
6.558113e-10
-1.0491511e-09
-8.533227e-10
1.0987727e-09
9.0162069e-10
-1.0789595e-09
-6.6419448e-10
1.1239301e-09
7.0814714e-10
-2.6488727e-11
-4.8430076e-10
6.6675942e-11
5.2376933e-10
-1.1098266e-10
-3.1854596e-10
1.463513e-10
3.5348191e-10
-2.2203275e-10
-1.7227026e-10
2.5263683e-10
2.0271114e-10
-3.5772044e-10
-1.1607842e-09
3.8369355e-10
1.1868455e-09
-5.1497958e-10
3.8478518e-11
5.3652526e-10
-1.6612105e-11
-6.8955335e-10
9.04216e-11
7.0693439e-10
-7.2505289e-11
2.3356251e-10
-1.0115941e-09
-2.2003441e-10
1.0258566e-09
-1.0677458e-09
5.4343085e-11
1.0777742e-09
-4.3395156e-11
-1.4769889e-10
-1.1567879e-09
1.5461622e-10
1.1647963e-09
-3.2672045e-10
-1.3229362e-09
3.3094575e-10
1.3284103e-09
-4.8665901e-10
-4.5033276e-10
4.8863914e-10
4.5370414e-10
-6.1912901e-10
3.460272e-10
6.1933698e-10
-3.443038e-10
3.9288811e-10
-4.7409742e-11
-3.939562e-10
4.7957177e-11
-7.7366901e-10
-5.2259513e-10
7.7183495e-10
5.2244261e-10
-7.8741609e-10
-1.0768852e-09
7.8532023e-10
1.0764889e-09
-7.5926211e-10
-5.9118494e-10
7.5736316e-10
5.9094257e-10
-6.9561943e-10
-1.5458578e-10
6.9425444e-10
1.5476861e-10
-6.0854294e-10
-8.4118945e-10
6.0781216e-10
8.4184902e-10
5.9430892e-10
-3.7871475e-10
-5.9463096e-10
3.796543e-10
-4.3369178e-10
-8.956867e-10
4.3348785e-10
8.9640842e-10
-3.7163492e-10
3.2285419e-11
3.6998454e-10
-3.1682415e-11
-2.9481871e-10
-5.1577183e-10
2.9121911e-10
5.1279669e-10
8.7944568e-10
-7.5273851e-10
-8.8271259e-10
7.4558567e-10
-1.8075792e-10
-1.731612e-10
-1.7460124e-11
2.3981761e-10
-1.4850426e-09
-8.1904573e-10
6.5263825e-10
7.5074805e-10
-1.7603164e-09
-8.6783453e-10
7.0576867e-10
6.3615646e-10
-1.5211915e-09
-7.2871417e-10
4.5552401e-10
3.8549003e-10
-1.2845607e-09
-6.5743622e-10
3.4647984e-10
2.853441e-10
-1.0620928e-09
-6.1417593e-10
3.1117734e-10
2.6874637e-10
-8.049773e-10
-5.132873e-10
2.3877972e-10
2.1681049e-10
-6.1563408e-10
-4.3567926e-10
2.0470071e-10
1.936761e-10
-4.7210311e-10
-3.6790258e-10
1.8317036e-10
1.8080905e-10
-3.7798999e-10
-3.0723654e-10
1.8181457e-10
1.7077873e-10
-3.0462503e-10
-2.7888066e-10
1.7883259e-10
1.8660876e-10
-2.5868055e-10
-2.4351738e-10
1.8656112e-10
1.8814255e-10
-2.3367878e-10
-2.3646989e-10
2.0134421e-10
2.1064819e-10
-2.1914828e-10
-2.2507982e-10
2.1490231e-10
2.2220215e-10
-2.1800694e-10
-2.3368794e-10
2.3342879e-10
2.4842258e-10
-2.1612533e-10
-2.3711981e-10
2.4622734e-10
2.6552131e-10
-2.2984039e-10
-2.5116877e-10
2.7124271e-10
2.9043976e-10
-2.7771428e-10
-3.3803272e-10
3.2777996e-10
3.8583935e-10
-2.2326773e-10
-3.2722397e-10
2.8014386e-10
3.8165872e-10
-1.6454129e-10
-3.154653e-10
2.2692851e-10
3.75554e-10
-2.0230211e-10
-2.9066051e-10
2.6922872e-10
3.5581081e-10
-3.2981304e-10
-2.4373003e-10
4.0044564e-10
3.1318625e-10
-3.2194195e-10
-3.9079858e-10
3.9549878e-10
4.6378401e-10
-2.8949525e-10
-2.8525961e-10
3.6521554e-10
3.6099084e-10
-2.3471684e-10
-3.7053616e-10
3.1183762e-10
4.4822295e-10
-2.7245092e-10
-4.2603476e-10
3.5020556e-10
5.0485392e-10
-2.9659052e-10
-4.5411312e-10
3.7422071e-10
5.3322244e-10
-3.1241067e-10
-4.5761546e-10
3.8918244e-10
5.3621787e-10
-3.2524306e-10
-4.3960792e-10
4.0045643e-10
5.1693606e-10
-3.4023937e-10
-5.1414399e-10
4.132375e-10
5.8944796e-10
-4.7318992e-10
-5.7328261e-10
5.4337019e-10
6.4586412e-10
-3.9567037e-10
-5.0903023e-10
4.62494e-10
5.782621e-10
-4.4455809e-10
-6.5724205e-10
5.0755847e-10
7.2258676e-10
-4.0147848e-10
-5.772116e-10
4.6026673e-10
6.3822374e-10
-3.8040502e-10
-6.0515265e-10
4.34675e-10
6.6148034e-10
6.0051591e-11
-8.5567476e-10
-1.0519198e-11
9.070661e-10
3.0472669e-11
-6.6707167e-10
1.4189336e-11
7.1337637e-10
-1.1358851e-09
-4.8762405e-10
1.1756288e-09
5.2878777e-10
-1.104805e-10
-3.222328e-10
1.4534077e-10
3.5828815e-10
-2.2115996e-10
-1.7623582e-10
2.5124915e-10
2.072952e-10
-3.5645884e-10
-1.1649404e-09
3.8195948e-10
1.1911867e-09
-5.1332562e-10
3.4222982e-11
5.3448202e-10
-1.2545967e-11
-6.8751696e-10
8.6161966e-11
7.0462681e-10
-6.8759949e-11
2.3595903e-10
-1.0157583e-09
-2.2255275e-10
1.0292196e-09
-1.0650266e-09
5.0379114e-11
1.0751083e-09
-4.0491386e-11
-1.4471143e-10
-1.1604409e-09
1.5187598e-10
1.1671493e-09
-3.2353656e-10
-1.3261593e-09
3.2821514e-10
1.3301055e-09
-4.833695e-10
-4.5299682e-10
4.8601352e-10
4.5461925e-10
-6.1584507e-10
-7.6549757e-10
6.1692239e-10
7.6525349e-10
-7.1352558e-10
-4.8519224e-11
7.1351589e-10
4.6884019e-11
-7.7081118e-10
-5.2267509e-10
7.701976e-10
5.2013736e-10
-7.8501169e-10
-1.0757433e-09
7.8426383e-10
1.07279e-09
-7.5747815e-10
-5.886201e-10
7.5701976e-10
5.8570891e-10
-6.9460098e-10
-1.5040736e-10
6.9475352e-10
1.4791561e-10
5.0117805e-10
-8.3526055e-10
-5.0028299e-10
8.3341495e-10
-5.1596693e-10
-3.711125e-10
5.1746421e-10
3.6991519e-10
-4.3531194e-10
2.225263e-10
4.370826e-10
-2.2305682e-10
-3.7327003e-10
3.9529797e-11
3.7488216e-10
-4.0638499e-11
-2.965542e-10
-5.0905832e-10
2.9649847e-10
5.0918536e-10
8.7796379e-10
-7.4629648e-10
-8.7819795e-10
7.4882049e-10
-3.0872292e-10
-3.537856e-10
7.2587889e-11
2.1526449e-10
-7.5742422e-10
-6.8674146e-10
5.8463422e-10
6.1864019e-10
-9.7303728e-10
-7.5092389e-10
7.6680195e-10
6.7116084e-10
-6.5212655e-10
-5.478721e-10
4.6686008e-10
4.1772253e-10
-5.9016794e-10
-5.3253507e-10
4.1422011e-10
3.7759476e-10
-5.0887697e-10
-5.164528e-10
3.636003e-10
3.6142469e-10
-4.1057194e-10
-4.3982958e-10
3.0300906e-10
2.9986243e-10
-3.2901995e-10
-3.8721797e-10
2.5561345e-10
2.6615312e-10
-2.6888166e-10
-3.3492752e-10
2.2511932e-10
2.3537958e-10
-2.2053799e-10
-2.9696699e-10
2.0321054e-10
2.198058e-10
-1.9713897e-10
-2.6573439e-10
2.0124666e-10
2.0959164e-10
-1.8974373e-10
-2.4675917e-10
2.0860879e-10
2.0902345e-10
-1.8178756e-10
-2.4094475e-10
2.0980426e-10
2.1884209e-10
-1.8595989e-10
-2.2719842e-10
2.1987555e-10
2.1824019e-10
-1.9712502e-10
-2.3083343e-10
2.3509135e-10
2.3292194e-10
-1.9343269e-10
-2.3862275e-10
2.3403764e-10
2.5011785e-10
-1.1442826e-10
-2.5576002e-10
1.570603e-10
2.7551141e-10
-2.781965e-10
-2.3372089e-10
3.230031e-10
2.611332e-10
-2.2694854e-10
-2.2410817e-10
2.7431482e-10
2.5877058e-10
-2.8106574e-10
-3.238434e-10
3.3137564e-10
3.6500145e-10
-2.0878534e-10
-2.9911067e-10
2.6231742e-10
3.4600091e-10
-3.3648397e-10
-2.5194037e-10
3.9337384e-10
3.0397517e-10
-3.2827109e-10
-3.9854108e-10
3.884654e-10
4.5509151e-10
-2.9513907e-10
-2.923582e-10
3.5838923e-10
3.5272713e-10
-2.3948364e-10
-3.7688089e-10
3.0536765e-10
4.4030489e-10
-2.7626055e-10
-4.3152174e-10
3.4420961e-10
4.9721659e-10
-2.9944775e-10
-4.5866184e-10
3.6878104e-10
5.2582555e-10
-3.1438747e-10
-4.6125173e-10
3.8434666e-10
5.2904099e-10
-3.264542e-10
-4.4238184e-10
3.9624456e-10
5.0997412e-10
-3.4082207e-10
-5.1607015e-10
4.0964993e-10
5.8270389e-10
-4.7329089e-10
-4.6342226e-10
5.4039318e-10
5.2838696e-10
-3.9543615e-10
-5.0932524e-10
4.6010488e-10
5.7196907e-10
-4.4412827e-10
-6.5678285e-10
5.0573017e-10
7.1652305e-10
-4.0098059e-10
-5.7605289e-10
4.5897124e-10
6.3238705e-10
-3.7995146e-10
-6.0334736e-10
4.3388568e-10
6.5586458e-10
-1.0491954e-09
-8.5328124e-10
1.0987329e-09
9.0166326e-10
-1.0789943e-09
-6.6416199e-10
1.1238989e-09
7.0818028e-10
-2.6515296e-11
-4.8427653e-10
6.6652087e-11
5.2379476e-10
-1.1100233e-10
-3.185279e-10
1.4633359e-10
3.535007e-10
-2.220468e-10
-1.7225737e-10
2.5262409e-10
2.0272458e-10
-3.5773005e-10
-1.1607754e-09
3.8368478e-10
1.1868547e-09
-5.1498573e-10
3.8484065e-11
5.3651956e-10
-1.6606224e-11
-6.8955688e-10
9.0424775e-11
7.0693102e-10
-7.2501874e-11
2.3356087e-10
-1.0115927e-09
-2.2003612e-10
1.0258583e-09
-1.0677461e-09
5.4343324e-11
1.0777736e-09
-4.339443e-11
-1.4769839e-10
-1.1567885e-09
1.5461642e-10
1.1647957e-09
-3.2671947e-10
-1.3229372e-09
3.3094638e-10
1.3284092e-09
-4.8665777e-10
-4.5033355e-10
4.8863993e-10
4.5370318e-10
-6.1912765e-10
3.4602624e-10
6.1933777e-10
-3.4430452e-10
3.9288937e-10
-4.7410849e-11
-3.9395548e-10
4.7956299e-11
-7.7366794e-10
-5.2259637e-10
7.7183554e-10
5.2244156e-10
-7.8741519e-10
-1.0768862e-09
7.853207e-10
1.0764886e-09
-7.5926145e-10
-5.9118531e-10
7.573634e-10
5.9094244e-10
-6.95619e-10
-1.5458643e-10
6.9425451e-10
1.5476863e-10
-6.0854269e-10
-8.4118995e-10
6.0781209e-10
8.4184874e-10
5.9430913e-10
-3.7871473e-10
-5.9463106e-10
3.7965363e-10
-4.3369152e-10
-8.9568681e-10
4.3348777e-10
8.9640841e-10
-3.7163457e-10
3.2285166e-11
3.6998454e-10
-3.1682197e-11
-2.9481841e-10
-5.1577217e-10
2.9121922e-10
5.1279654e-10
8.7944576e-10
-7.5273877e-10
-8.8271249e-10
7.4558563e-10
)
;

boundaryField
{
    movingWall
    {
        type            calculated;
        value           nonuniform List<scalar> 
16
(
8.9292261e-10
8.9359424e-10
8.9292243e-10
8.9359424e-10
-4.0709631e-10
-4.1211309e-10
-4.0709637e-10
-4.1211326e-10
-8.9187077e-10
-8.960394e-10
-8.9187077e-10
-8.9603934e-10
4.0982845e-10
4.0452237e-10
4.0982852e-10
4.045224e-10
)
;
    }
    CPLReceiveMD
    {
        type            calculated;
        value           nonuniform List<scalar> 
16
(
-7.6229818e-09
-6.3109661e-10
-3.3421693e-10
-5.9871602e-10
-8.8797539e-10
-6.215806e-10
-3.9313722e-10
-6.0351208e-10
2.5613163e-10
2.1761243e-10
1.9533438e-10
2.4251084e-10
-4.5932144e-11
4.0206305e-10
4.766691e-10
4.1476058e-10
)
;
    }
    streamwiseIn
    {
        type            cyclic;
    }
    streamwiseOut
    {
        type            cyclic;
    }
    front
    {
        type            cyclic;
    }
    back
    {
        type            cyclic;
    }
}


// ************************************************************************* //
