/*--------------------------------*- C++ -*----------------------------------*\
| =========                 |                                                 |
| \\      /  F ield         | OpenFOAM: The Open Source CFD Toolbox           |
|  \\    /   O peration     | Version:  3.0.x                                 |
|   \\  /    A nd           | Web:      www.OpenFOAM.org                      |
|    \\/     M anipulation  |                                                 |
\*---------------------------------------------------------------------------*/
FoamFile
{
    version     2.0;
    format      ascii;
    class       volScalarField;
    location    "300";
    object      sigmaxz;
}
// * * * * * * * * * * * * * * * * * * * * * * * * * * * * * * * * * * * * * //

dimensions      [0 2 -2 0 0 0 0];

internalField   nonuniform List<scalar> 
960
(
8.3211207e-13
1.7958027e-11
-8.3211207e-13
-1.314626e-12
8.9627819e-13
1.7681113e-12
-8.9627819e-13
-1.7681116e-12
7.2571551e-13
1.8058166e-12
-7.257158e-13
-1.8058169e-12
5.2599282e-13
1.452957e-12
-5.2599282e-13
-1.452957e-12
4.1012999e-13
9.901995e-13
-4.1012999e-13
-9.901995e-13
3.1998218e-13
1.7251135e-11
-3.1998218e-13
-1.7251135e-11
2.5548617e-13
3.5078118e-13
-2.5548632e-13
-3.5078132e-13
2.024307e-13
1.6942666e-13
-2.024307e-13
-1.6942666e-13
1.6134272e-13
1.6955465e-14
-1.613427e-13
-1.6955483e-14
1.320515e-13
-6.8108793e-14
-1.3205158e-13
6.8108866e-14
1.096112e-13
-9.2965401e-14
-1.0961135e-13
9.2965547e-14
9.1888045e-14
-1.0524543e-13
-9.1888045e-14
1.0524543e-13
7.6500994e-14
-1.0498206e-13
-7.6500994e-14
1.0498235e-13
6.3065809e-14
-9.580576e-14
-6.3065809e-14
9.580576e-14
5.0436668e-14
-7.6029097e-14
-5.0436668e-14
7.6029388e-14
3.9701648e-14
-5.7270843e-14
-3.9702812e-14
5.7271425e-14
3.0607445e-14
-4.1344639e-14
-3.0606863e-14
4.1344639e-14
2.2415262e-14
-2.8531917e-14
-2.2415262e-14
2.8532499e-14
1.3980892e-14
-1.8552854e-14
-1.3980892e-14
1.8552854e-14
8.5664703e-15
-1.1224182e-14
-8.5664703e-15
1.1224182e-14
4.7752415e-15
-6.0001127e-15
-4.7752415e-15
6.0001127e-15
2.1843782e-15
-2.3052749e-15
-2.1843782e-15
2.3064389e-15
6.3867555e-16
9.1606114e-17
-6.3867555e-16
-9.1606114e-17
-1.4715596e-16
1.6463453e-15
1.4715596e-16
-1.6463453e-15
-3.9840808e-16
2.4998838e-15
3.9840808e-16
-2.4998838e-15
-3.2310501e-16
2.8898537e-15
3.2310501e-16
-2.8898537e-15
-5.299076e-16
2.9853848e-15
5.299076e-16
-2.9830568e-15
-6.3832604e-16
2.8791949e-15
6.3832604e-16
-2.8768669e-15
-6.5938161e-16
2.6474958e-15
6.5938161e-16
-2.6474958e-15
-6.1345747e-16
2.3531603e-15
6.1345747e-16
-2.3508322e-15
-5.2383608e-16
2.0272072e-15
5.2383608e-16
-2.0272072e-15
-4.1326596e-16
1.7031402e-15
4.0860982e-16
-1.7031402e-15
-2.8635588e-16
1.3946947e-15
2.8635588e-16
-1.3946947e-15
-1.8363497e-16
1.1117416e-15
1.8363497e-16
-1.1117416e-15
-1.5076359e-16
8.6452582e-16
1.5076359e-16
-8.5986969e-16
-1.2475827e-16
6.4614992e-16
1.2475827e-16
-6.4149378e-16
-9.8787742e-17
4.6076223e-16
9.8787742e-17
-4.5610609e-16
-7.7308433e-17
3.0241826e-16
7.7308433e-17
-3.0241826e-16
-6.1627071e-17
1.8756824e-16
6.1627071e-17
-1.7825597e-16
-5.2466559e-17
8.0395568e-17
5.2466559e-17
-8.0395568e-17
-4.7557355e-17
6.0981589e-18
4.7557355e-17
-6.0981589e-18
-3.7006138e-17
-4.7847834e-17
4.631841e-17
4.7847834e-17
-4.7046066e-17
-8.5818476e-17
4.7046066e-17
8.5818476e-17
-4.8697544e-17
-1.0202784e-16
4.8697544e-17
1.1134011e-16
-4.9954803e-17
-1.1610375e-16
4.9954803e-17
1.2541602e-16
-5.0078314e-17
-1.3129873e-16
5.0078314e-17
1.3129873e-16
-4.9750722e-17
-1.3037971e-16
4.9750722e-17
1.3037971e-16
-4.9087399e-17
-1.2320687e-16
4.9087399e-17
1.2320687e-16
-4.7376857e-17
-9.3075116e-17
4.7376857e-17
1.1169966e-16
-4.5156904e-17
-9.9287686e-17
4.5156904e-17
9.9287686e-17
-4.3895255e-17
-8.7953077e-17
4.3895255e-17
8.7953077e-17
-4.3775215e-17
-7.8099889e-17
4.3775215e-17
7.8099889e-17
-2.5638969e-17
-5.0257319e-17
4.4263512e-17
6.8881863e-17
-4.3979692e-17
-6.2176303e-17
4.3979692e-17
6.2176303e-17
-4.2899536e-17
-5.5502577e-17
4.2899536e-17
5.5502577e-17
-4.1492238e-17
-3.1187992e-17
4.1492238e-17
3.1187992e-17
-3.808225e-17
-4.2652258e-17
3.808225e-17
4.2652258e-17
-3.1628377e-17
-3.2663522e-17
3.1628377e-17
3.2663522e-17
-2.5417562e-17
4.1966601e-19
2.5417562e-17
1.8204878e-17
-1.7727973e-17
-1.3915651e-18
1.7727973e-17
1.3915651e-18
-4.6980994e-14
-6.0661406e-11
4.6980994e-14
4.4018005e-11
1.6656034e-12
-3.398373e-10
-1.6656034e-12
3.564807e-10
2.2674065e-12
-3.9893128e-10
-2.2674062e-12
3.8228788e-10
2.1414119e-12
-3.9792934e-10
-2.1414119e-12
3.9792934e-10
1.8264515e-11
-3.3439335e-10
-1.6211142e-12
3.3439335e-10
1.2697018e-12
-2.6254045e-10
-1.2697018e-12
2.6254045e-10
1.0174311e-12
-1.9456566e-10
-1.0174311e-12
1.7792226e-10
7.8818489e-13
-1.3580771e-10
-7.8818489e-13
1.3414337e-10
6.048029e-13
-9.5934627e-11
-6.048029e-13
9.5934627e-11
4.6004659e-13
-6.6743692e-11
-4.6004651e-13
6.6743692e-11
3.4238156e-13
-5.6745843e-11
-3.4238156e-13
4.0102442e-11
2.4830607e-13
-3.3106385e-11
-2.4830607e-13
3.3106385e-11
1.7573884e-13
-2.8189596e-11
-1.7573884e-13
2.8189596e-11
1.2041201e-13
-8.0585485e-12
-1.2041172e-13
2.470195e-11
8.0188741e-14
-5.5815434e-12
-8.0188741e-14
2.2224945e-11
4.9541415e-14
-3.850528e-12
-4.9540833e-14
2.0493929e-11
2.4683329e-14
-2.648222e-12
-2.4683329e-14
2.648222e-12
6.2877106e-15
-1.8157748e-12
-6.2877106e-15
1.8157748e-12
5.980307e-15
-1.2424412e-12
-5.980307e-15
1.2424412e-12
1.2939446e-14
-8.4823903e-13
-1.2939446e-14
8.4823903e-13
1.7018377e-14
-5.786805e-13
-1.7017213e-14
5.786805e-13
1.8246344e-14
-3.9469747e-13
-1.8246344e-14
3.9469747e-13
1.7930735e-14
-2.6939873e-13
-1.7930735e-14
2.6939873e-13
1.6824931e-14
-1.8397138e-13
-1.6824931e-14
1.8397138e-13
1.543519e-14
-1.257039e-13
-1.543519e-14
1.257039e-13
1.3944907e-14
-8.6011368e-14
-1.3944907e-14
8.6011368e-14
1.1633937e-14
-5.8956936e-14
-1.1631609e-14
5.8956936e-14
8.7006144e-15
-4.0482245e-14
-8.7006144e-15
4.0482245e-14
6.2912058e-15
-2.7838927e-14
-6.2912058e-15
2.7838927e-14
4.5147074e-15
-1.9164596e-14
-4.5147074e-15
1.9164596e-14
3.2362778e-15
-1.3204226e-14
-3.2362778e-15
1.3204226e-14
2.3385427e-15
-9.0977459e-15
-2.3385427e-15
9.0977459e-15
1.7240833e-15
-6.2589975e-15
-1.7240833e-15
6.2589975e-15
1.2944123e-15
-4.2901546e-15
-1.2944123e-15
4.2901546e-15
8.7678521e-16
-2.9211999e-15
-8.7678521e-16
2.9211999e-15
5.7926643e-16
-1.9678309e-15
-5.7926643e-16
1.9678309e-15
3.828455e-16
-1.3034802e-15
-3.828455e-16
1.3034802e-15
2.5382019e-16
-8.5073142e-16
-2.5382019e-16
8.4141915e-16
1.7014283e-16
-5.2130845e-16
-1.7014283e-16
5.2130845e-16
1.1635402e-16
-3.0086543e-16
-1.1635402e-16
3.0086543e-16
8.2440093e-17
-1.5180613e-16
-8.2440093e-17
1.5180613e-16
6.2057086e-17
-5.2904214e-17
-6.2057086e-17
5.2904214e-17
4.8865526e-17
1.0651777e-17
-4.8865526e-17
-1.0651777e-17
4.1877794e-17
4.9020476e-17
-4.1877794e-17
-4.9020476e-17
3.8065606e-17
6.9600358e-17
-3.8065606e-17
-6.9600358e-17
3.4846123e-17
7.8620017e-17
-3.4846123e-17
-7.8620017e-17
3.14529e-17
8.0185295e-17
-3.14529e-17
-8.0185295e-17
2.9507136e-17
7.7160906e-17
-2.9507136e-17
-7.7160906e-17
2.7842131e-17
7.2065163e-17
-2.7842131e-17
-7.2065163e-17
2.6782146e-17
6.5121141e-17
-2.6782146e-17
-6.5121141e-17
2.47877e-17
5.7068275e-17
-2.47877e-17
-5.7068275e-17
2.1342566e-17
5.0396945e-17
-2.1342566e-17
-5.0396945e-17
1.6825995e-17
4.4837933e-17
-1.6825995e-17
-4.4837933e-17
1.3009471e-17
4.1324923e-17
-1.3009471e-17
-4.1324923e-17
1.0410724e-17
5.5740764e-17
-1.0410724e-17
-3.711622e-17
9.2327775e-18
3.4581272e-17
-9.2327775e-18
-3.4581272e-17
7.0079157e-18
3.0481245e-17
-2.5632459e-17
-3.0481245e-17
5.5358131e-18
2.3808985e-17
-5.5358131e-18
-2.3808985e-17
7.7050006e-18
1.4850426e-17
-7.7050006e-18
-1.4850426e-17
9.2968964e-18
2.0306867e-18
-9.2968964e-18
-2.0306867e-18
-8.3211207e-13
-1.7958027e-11
8.3211207e-13
1.314626e-12
-8.9627821e-13
-1.7681116e-12
8.9627821e-13
1.7681116e-12
-7.257158e-13
-1.8058169e-12
7.257158e-13
1.8058172e-12
-5.2599282e-13
-1.452957e-12
5.2599282e-13
1.452957e-12
-4.1012999e-13
-9.901995e-13
4.1012999e-13
9.901998e-13
-3.1998218e-13
-1.7251135e-11
3.1998218e-13
1.7251135e-11
-2.5548632e-13
-3.5078132e-13
2.5548632e-13
3.5078132e-13
-2.024307e-13
-1.6942666e-13
2.024307e-13
1.6942666e-13
-1.6134273e-13
-1.6955465e-14
1.6134272e-13
1.6955465e-14
-1.3205158e-13
6.8108793e-14
1.3205158e-13
-6.8108866e-14
-1.0961135e-13
9.2965547e-14
1.0961135e-13
-9.2965547e-14
-9.1888045e-14
1.0524529e-13
9.1888045e-14
-1.0524529e-13
-7.6500996e-14
1.0498235e-13
7.6500996e-14
-1.0498264e-13
-6.3065809e-14
9.5805469e-14
6.3065809e-14
-9.580576e-14
-5.0436377e-14
7.6029388e-14
5.0436668e-14
-7.6029388e-14
-3.970223e-14
5.7270843e-14
3.970223e-14
-5.7270843e-14
-3.0607445e-14
4.1344639e-14
3.0607445e-14
-4.1344639e-14
-2.2415262e-14
2.8531917e-14
2.2415262e-14
-2.8533081e-14
-1.3980892e-14
1.8552854e-14
1.3980892e-14
-1.8552854e-14
-8.5664703e-15
1.1224182e-14
8.5664703e-15
-1.1224182e-14
-4.7752415e-15
6.0001127e-15
4.7752415e-15
-6.0001127e-15
-2.1843782e-15
2.3064391e-15
2.1843782e-15
-2.3064391e-15
-6.3867555e-16
-9.1606114e-17
6.3867555e-16
9.1606114e-17
1.4715596e-16
-1.6463453e-15
-1.4715596e-16
1.6463453e-15
3.9840808e-16
-2.4998838e-15
-3.9840808e-16
2.4998838e-15
3.2310501e-16
-2.8898537e-15
-3.2310501e-16
2.8898537e-15
5.299076e-16
-2.9830568e-15
-5.299076e-16
2.9830568e-15
6.3832604e-16
-2.8768669e-15
-6.3832604e-16
2.8768669e-15
6.5938161e-16
-2.6474958e-15
-6.5938161e-16
2.6474958e-15
6.1345747e-16
-2.3531603e-15
-6.1345747e-16
2.3508322e-15
5.2383608e-16
-2.0272072e-15
-5.2383608e-16
2.0272072e-15
4.0860982e-16
-1.7031402e-15
-4.0860982e-16
1.7031402e-15
2.8635588e-16
-1.3946947e-15
-2.8635588e-16
1.3946947e-15
1.8363497e-16
-1.1117416e-15
-1.8363497e-16
1.1117416e-15
1.5076359e-16
-8.5986969e-16
-1.5076359e-16
8.5986969e-16
1.2475827e-16
-6.4149378e-16
-1.2475827e-16
6.4149378e-16
9.8787742e-17
-4.5610609e-16
-9.8787742e-17
4.5610609e-16
7.7308433e-17
-2.9310599e-16
-7.7308433e-17
3.0241826e-16
6.1627054e-17
-1.7825597e-16
-6.1627054e-17
1.7825597e-16
5.2466559e-17
-8.0395568e-17
-5.2466559e-17
8.0395568e-17
4.7557355e-17
-6.0981756e-18
-4.7557355e-17
6.0981756e-18
4.6318412e-17
4.7847835e-17
-4.6318412e-17
-4.7847835e-17
4.7046068e-17
8.5818476e-17
-4.7046068e-17
-8.5818476e-17
4.8697544e-17
1.1134011e-16
-4.8697544e-17
-1.1134011e-16
4.9954803e-17
1.2541602e-16
-4.9954803e-17
-1.2541602e-16
5.0078314e-17
1.3129873e-16
-5.0078314e-17
-1.3129873e-16
4.9750722e-17
1.3037971e-16
-4.9750722e-17
-1.3037971e-16
4.9087416e-17
1.2320687e-16
-4.9087416e-17
-1.2320687e-16
4.7376857e-17
1.1169966e-16
-4.7376857e-17
-1.1169966e-16
4.5156904e-17
9.9287686e-17
-4.5156904e-17
-9.9287686e-17
4.3895255e-17
8.7953077e-17
-4.3895255e-17
-8.7953077e-17
4.3775215e-17
7.8099889e-17
-4.3775215e-17
-7.8099889e-17
4.4263514e-17
6.8881863e-17
-4.4263514e-17
-6.8881863e-17
4.3979692e-17
6.2176303e-17
-4.3979692e-17
-6.2176303e-17
4.2899536e-17
3.6878033e-17
-4.2899536e-17
-5.5502577e-17
4.1492239e-17
4.9812536e-17
-4.1492239e-17
-3.1187992e-17
3.8082251e-17
4.2652258e-17
-3.8082251e-17
-4.2652258e-17
3.1628377e-17
3.2663524e-17
-3.1628377e-17
-3.2663524e-17
2.5417563e-17
1.8204878e-17
-2.5417563e-17
-1.8204878e-17
1.7727973e-17
1.3915653e-18
-1.7727973e-17
-1.3915653e-18
4.6980994e-14
6.0661406e-11
-4.6980994e-14
-4.4018005e-11
-1.6656037e-12
3.398373e-10
1.6656034e-12
-3.564807e-10
-2.2674065e-12
3.9893128e-10
2.2674062e-12
-3.8228788e-10
-2.1414122e-12
3.9792934e-10
2.1414119e-12
-3.9792934e-10
-1.8264515e-11
3.3439335e-10
1.6211142e-12
-3.3439335e-10
-1.2697019e-12
2.6254045e-10
1.2697018e-12
-2.6254045e-10
-1.017431e-12
1.9456566e-10
1.0174311e-12
-1.7792226e-10
-7.8818493e-13
1.3580771e-10
7.8818489e-13
-1.3414337e-10
-6.0480288e-13
9.5934627e-11
6.0480288e-13
-9.5934627e-11
-4.6004651e-13
6.6743692e-11
4.6004651e-13
-6.6743691e-11
-3.4238142e-13
5.6745843e-11
3.4238156e-13
-4.0102442e-11
-2.4830592e-13
3.3106385e-11
2.4830607e-13
-3.3106385e-11
-1.7573884e-13
2.8189596e-11
1.7573884e-13
-2.8189595e-11
-1.2041172e-13
8.0585488e-12
1.2041201e-13
-2.470195e-11
-8.0188741e-14
5.5815434e-12
8.0188741e-14
-2.2224945e-11
-4.9540833e-14
3.850528e-12
4.9541415e-14
-2.0493929e-11
-2.4682747e-14
2.648222e-12
2.4683329e-14
-2.6482214e-12
-6.2877106e-15
1.8157754e-12
6.2877106e-15
-1.8157742e-12
-5.980307e-15
1.2424412e-12
5.980307e-15
-1.2424412e-12
-1.2939446e-14
8.4823903e-13
1.2939446e-14
-8.4823903e-13
-1.7018377e-14
5.786805e-13
1.7017213e-14
-5.786805e-13
-1.8246344e-14
3.9469747e-13
1.8246344e-14
-3.9469747e-13
-1.7929571e-14
2.6939873e-13
1.7930735e-14
-2.6939757e-13
-1.6824931e-14
1.8397138e-13
1.6824931e-14
-1.8397138e-13
-1.543519e-14
1.257039e-13
1.543519e-14
-1.2570157e-13
-1.3944907e-14
8.6011368e-14
1.3944907e-14
-8.6011368e-14
-1.1633937e-14
5.8956936e-14
1.1633937e-14
-5.8956936e-14
-8.6982863e-15
4.0482245e-14
8.7006144e-15
-4.0479917e-14
-6.2888777e-15
2.7838927e-14
6.2935338e-15
-2.7836599e-14
-4.5147074e-15
1.9166924e-14
4.5170355e-15
-1.9162267e-14
-3.2362778e-15
1.3204226e-14
3.2362778e-15
-1.3204226e-14
-2.3338866e-15
9.0977459e-15
2.3385427e-15
-9.0977459e-15
-1.7194272e-15
6.2589975e-15
1.7240833e-15
-6.2589975e-15
-1.2944123e-15
4.2901546e-15
1.2990684e-15
-4.2901546e-15
-8.7678521e-16
2.9211999e-15
8.8144134e-16
-2.9165438e-15
-5.7926643e-16
1.9678309e-15
5.7926643e-16
-1.9678309e-15
-3.828455e-16
1.3034802e-15
3.828455e-16
-1.3034802e-15
-2.5382019e-16
8.4141915e-16
2.5382019e-16
-8.4141915e-16
-1.7014283e-16
5.2130845e-16
1.7014283e-16
-5.2130845e-16
-1.1635402e-16
3.0086543e-16
1.1635402e-16
-3.0086543e-16
-7.3127822e-17
1.5180613e-16
8.2440093e-17
-1.5180613e-16
-6.2057086e-17
5.2904214e-17
6.2057086e-17
-5.2904214e-17
-3.9553254e-17
-1.0651777e-17
4.8865526e-17
1.0651777e-17
-4.1877794e-17
-4.9020476e-17
4.1877794e-17
5.8332748e-17
-3.8065606e-17
-6.9600358e-17
3.8065606e-17
7.891263e-17
-3.4846107e-17
-7.8620017e-17
4.4158378e-17
7.8620017e-17
-2.2140628e-17
-8.0185295e-17
3.14529e-17
8.0185295e-17
-2.9507136e-17
-7.7160906e-17
2.9507136e-17
7.7160906e-17
-2.7842131e-17
-7.2065163e-17
2.7842131e-17
9.0689706e-17
-2.6782146e-17
-6.5121141e-17
2.6782146e-17
8.3745685e-17
-2.47877e-17
-5.7068275e-17
2.47877e-17
5.7068275e-17
-2.1342566e-17
-5.0396945e-17
2.1342566e-17
5.0396945e-17
-1.6825995e-17
-4.4837933e-17
1.6825995e-17
6.3462476e-17
-1.300947e-17
-4.1324923e-17
3.1634013e-17
4.1324923e-17
8.2138197e-18
-3.7116218e-17
1.0410724e-17
5.5740762e-17
-9.2327774e-18
-3.4581272e-17
2.7857321e-17
3.4581272e-17
-7.0079156e-18
-3.0481245e-17
2.5632459e-17
3.0481245e-17
1.3088731e-17
-2.3808985e-17
5.535813e-18
4.2433529e-17
-7.7050005e-18
-1.4850428e-17
2.6329544e-17
3.3474971e-17
-9.2968964e-18
-2.0306865e-18
9.2968964e-18
2.065523e-17
)
;

boundaryField
{
    movingWall
    {
        type            calculated;
        value           nonuniform List<scalar> 
16
(
-1.7727973e-17
9.2968964e-18
1.7727973e-17
-9.2968964e-18
-1.3915651e-18
2.0306867e-18
1.3915653e-18
-2.0306865e-18
1.7727973e-17
-9.2968964e-18
-1.7727973e-17
9.2968964e-18
1.3915651e-18
-2.0306867e-18
-1.3915653e-18
2.065523e-17
)
;
    }
    CPLReceiveMD
    {
        type            calculated;
        value           nonuniform List<scalar> 
16
(
8.3211207e-13
-4.6980994e-14
-8.3211207e-13
4.6980994e-14
1.7958027e-11
-6.0661406e-11
-1.7958027e-11
6.0661406e-11
-8.3211207e-13
4.6980994e-14
8.3211207e-13
-4.6980994e-14
-1.314626e-12
4.4018005e-11
1.314626e-12
-4.4018005e-11
)
;
    }
    streamwiseIn
    {
        type            cyclic;
    }
    streamwiseOut
    {
        type            cyclic;
    }
    front
    {
        type            cyclic;
    }
    back
    {
        type            cyclic;
    }
}


// ************************************************************************* //
