/*--------------------------------*- C++ -*----------------------------------*\
| =========                 |                                                 |
| \\      /  F ield         | OpenFOAM: The Open Source CFD Toolbox           |
|  \\    /   O peration     | Version:  3.0.1                                 |
|   \\  /    A nd           | Web:      www.OpenFOAM.org                      |
|    \\/     M anipulation  |                                                 |
\*---------------------------------------------------------------------------*/
FoamFile
{
    version     2.0;
    format      ascii;
    class       volScalarField;
    location    "450";
    object      p;
}
// * * * * * * * * * * * * * * * * * * * * * * * * * * * * * * * * * * * * * //

dimensions      [0 2 -2 0 0 0 0];

internalField   nonuniform List<scalar> 
480
(
1.1607836e-07
1.0541714e-07
1.7984801e-07
1.8202612e-07
1.149553e-07
1.0964588e-07
1.8073537e-07
1.7996106e-07
1.1480431e-07
1.1173543e-07
1.8092197e-07
1.802481e-07
1.1485711e-07
1.1324954e-07
1.803463e-07
1.8110841e-07
1.1730518e-07
1.1508727e-07
1.7884041e-07
1.8140671e-07
1.208144e-07
1.1831041e-07
1.7731658e-07
1.8060514e-07
1.2385023e-07
1.2164064e-07
1.7706174e-07
1.802188e-07
1.2624665e-07
1.246449e-07
1.7789552e-07
1.8062451e-07
1.283914e-07
1.2745199e-07
1.7920192e-07
1.8159714e-07
1.3059924e-07
1.3022382e-07
1.8058838e-07
1.8291194e-07
1.3300807e-07
1.330374e-07
1.8192e-07
1.8444518e-07
1.3564282e-07
1.3590927e-07
1.8320068e-07
1.8613928e-07
1.3849216e-07
1.3882314e-07
1.8449122e-07
1.879684e-07
1.4151141e-07
1.417447e-07
1.8585315e-07
1.8991592e-07
1.4462661e-07
1.4463049e-07
1.8732244e-07
1.9196361e-07
1.4776465e-07
1.4743425e-07
1.8890707e-07
1.9408798e-07
1.5085807e-07
1.5011125e-07
1.9059293e-07
1.962604e-07
1.5384797e-07
1.5262111e-07
1.9234901e-07
1.9844845e-07
1.5668556e-07
1.549297e-07
1.9413373e-07
2.0061767e-07
1.5933253e-07
1.5701015e-07
1.9590092e-07
2.0273355e-07
1.6176036e-07
1.5884317e-07
1.976047e-07
2.0476326e-07
1.6394932e-07
1.604167e-07
1.99203e-07
2.0667705e-07
1.6588729e-07
1.6172525e-07
2.0065957e-07
2.0844911e-07
1.6756853e-07
1.6276912e-07
2.01945e-07
2.1005798e-07
1.689927e-07
1.6355352e-07
2.0303685e-07
2.1148667e-07
1.7016388e-07
1.640878e-07
2.0391932e-07
2.1272235e-07
1.7108983e-07
1.6438478e-07
2.0458292e-07
2.1375611e-07
1.7178143e-07
1.6446002e-07
2.0502228e-07
2.1458264e-07
1.72252e-07
1.6433142e-07
2.0523776e-07
2.1520032e-07
1.7251691e-07
1.6401865e-07
2.0523371e-07
2.1561002e-07
1.7259324e-07
1.6354298e-07
2.0501793e-07
2.1581538e-07
1.7249937e-07
1.6292693e-07
2.0460117e-07
2.1582245e-07
1.7225476e-07
1.6219379e-07
2.0399674e-07
2.156394e-07
1.7187956e-07
1.6136738e-07
2.0322003e-07
2.1527623e-07
1.7139443e-07
1.6047174e-07
2.022881e-07
2.1474443e-07
1.7082018e-07
1.5953085e-07
2.012193e-07
2.1405672e-07
1.7017757e-07
1.5856829e-07
2.0003281e-07
2.1322669e-07
1.6948701e-07
1.5760692e-07
1.9874822e-07
2.1226855e-07
1.6876831e-07
1.5666855e-07
1.973851e-07
2.1119679e-07
1.6804043e-07
1.5577359e-07
1.9596257e-07
2.1002593e-07
1.6732126e-07
1.5494063e-07
1.9449889e-07
2.0877031e-07
1.6662743e-07
1.541861e-07
1.930111e-07
2.0744393e-07
1.6597408e-07
1.5352378e-07
1.9151466e-07
2.0606042e-07
1.6537475e-07
1.5296438e-07
1.9002316e-07
2.0463302e-07
1.6484122e-07
1.52515e-07
1.8854811e-07
2.0317486e-07
1.6438345e-07
1.5217851e-07
1.8709877e-07
2.0169929e-07
1.6400949e-07
1.5195289e-07
1.8568213e-07
2.0022049e-07
1.6372543e-07
1.5183048e-07
1.8430302e-07
1.9875433e-07
1.6353538e-07
1.5179705e-07
1.8296433e-07
1.9731946e-07
1.6344143e-07
1.5183093e-07
1.816675e-07
1.9593875e-07
1.634436e-07
1.5190205e-07
1.8041332e-07
1.9464092e-07
1.6353971e-07
1.5197106e-07
1.7920296e-07
1.9346239e-07
1.6372521e-07
1.5198841e-07
1.7803939e-07
1.9244945e-07
1.6399287e-07
1.518931e-07
1.7692914e-07
1.9166093e-07
1.6433246e-07
1.5161335e-07
1.7588434e-07
1.9116892e-07
1.6472905e-07
1.5107663e-07
1.7492569e-07
1.9104962e-07
1.6516027e-07
1.5021923e-07
1.7408529e-07
1.9137333e-07
1.6560061e-07
1.4889999e-07
1.7339937e-07
1.9228764e-07
1.6604067e-07
1.4665268e-07
1.7287438e-07
1.9425508e-07
1.6644283e-07
1.4309842e-07
1.7252197e-07
1.9762064e-07
1.1854797e-07
1.0594754e-07
1.8067226e-07
1.9032059e-07
1.1872296e-07
1.119278e-07
1.7955988e-07
1.8591241e-07
1.1902542e-07
1.1553717e-07
1.7847858e-07
1.8405615e-07
1.1765654e-07
1.1693744e-07
1.7846747e-07
1.8412345e-07
1.1855953e-07
1.1768359e-07
1.7794208e-07
1.844206e-07
1.2088143e-07
1.1958695e-07
1.7721904e-07
1.8364379e-07
1.2336982e-07
1.2179563e-07
1.7740764e-07
1.8294462e-07
1.2581305e-07
1.2403541e-07
1.783971e-07
1.8271801e-07
1.2839276e-07
1.2638526e-07
1.7973091e-07
1.8288609e-07
1.312288e-07
1.2890761e-07
1.8112879e-07
1.8333668e-07
1.3432885e-07
1.3160282e-07
1.8250593e-07
1.8404047e-07
1.3763862e-07
1.3443695e-07
1.8387902e-07
1.8500506e-07
1.4107553e-07
1.3736052e-07
1.8529273e-07
1.8623531e-07
1.4454046e-07
1.403177e-07
1.8677877e-07
1.8772462e-07
1.4796081e-07
1.4325264e-07
1.8835383e-07
1.8946064e-07
1.5127417e-07
1.4611364e-07
1.9001711e-07
1.9140699e-07
1.5442951e-07
1.4885426e-07
1.9174948e-07
1.9351572e-07
1.573874e-07
1.5143402e-07
1.9351874e-07
1.9573274e-07
1.6011903e-07
1.5381647e-07
1.9528529e-07
1.9800213e-07
1.6260489e-07
1.5597262e-07
1.9700713e-07
2.0026974e-07
1.6483336e-07
1.5788104e-07
1.9864381e-07
2.0248568e-07
1.6679932e-07
1.5952756e-07
2.0015901e-07
2.0460583e-07
1.6850283e-07
1.6090476e-07
2.015221e-07
2.0659264e-07
1.6994816e-07
1.6201127e-07
2.0270868e-07
2.0841527e-07
1.7114288e-07
1.6285102e-07
2.0370056e-07
2.1004929e-07
1.7209721e-07
1.6343245e-07
2.0448538e-07
2.1147645e-07
1.728235e-07
1.6376785e-07
2.0505602e-07
2.1268397e-07
1.7333587e-07
1.6387254e-07
2.0541063e-07
2.13664e-07
1.736498e-07
1.6376465e-07
2.0555064e-07
2.1441265e-07
1.7378191e-07
1.6346444e-07
2.0548115e-07
2.1493023e-07
1.7374973e-07
1.6299367e-07
2.0521043e-07
2.1522033e-07
1.7357152e-07
1.6237533e-07
2.0474942e-07
2.1528948e-07
1.7326602e-07
1.6163335e-07
2.0411138e-07
2.1514668e-07
1.7285233e-07
1.6079228e-07
2.0331146e-07
2.148031e-07
1.7234965e-07
1.5987695e-07
2.0236631e-07
2.1427166e-07
1.7177712e-07
1.5891214e-07
2.0129373e-07
2.1356673e-07
1.711536e-07
1.5792224e-07
2.0011223e-07
2.1270372e-07
1.7049744e-07
1.5693095e-07
1.9884064e-07
2.1169877e-07
1.6982628e-07
1.5596087e-07
1.974977e-07
2.1056838e-07
1.6915684e-07
1.5503318e-07
1.9610164e-07
2.0932917e-07
1.6850473e-07
1.5416725e-07
1.9466982e-07
2.0799758e-07
1.6788426e-07
1.5338021e-07
1.9321832e-07
2.0658973e-07
1.673083e-07
1.5268656e-07
1.9176164e-07
2.0512133e-07
1.6678813e-07
1.5209765e-07
1.903124e-07
2.0360772e-07
1.6633336e-07
1.5162117e-07
1.8888113e-07
2.0206406e-07
1.6595185e-07
1.5126057e-07
1.8747611e-07
2.0050568e-07
1.656497e-07
1.510143e-07
1.8610337e-07
1.9894866e-07
1.6543122e-07
1.5087514e-07
1.8476671e-07
1.9741067e-07
1.6529895e-07
1.5082928e-07
1.8346805e-07
1.9591202e-07
1.652537e-07
1.5085544e-07
1.8220787e-07
1.9447704e-07
1.6529454e-07
1.5092399e-07
1.8098611e-07
1.9313569e-07
1.6541878e-07
1.5099624e-07
1.7980306e-07
1.9192531e-07
1.6562177e-07
1.5102364e-07
1.7866089e-07
1.9089265e-07
1.6589667e-07
1.5094687e-07
1.775657e-07
1.9009648e-07
1.662339e-07
1.5069701e-07
1.7652941e-07
1.8960814e-07
1.6661931e-07
1.5020619e-07
1.7557266e-07
1.895022e-07
1.67031e-07
1.4941778e-07
1.7472679e-07
1.89846e-07
1.6744398e-07
1.4820004e-07
1.7402352e-07
1.907821e-07
1.6784876e-07
1.4609945e-07
1.7346126e-07
1.927718e-07
1.6821073e-07
1.4276547e-07
1.7302861e-07
1.9615686e-07
)
;

boundaryField
{
    movingWall
    {
        type            zeroGradient;
    }
    CPLReceiveMD
    {
        type            zeroGradient;
    }
    streamwiseIn
    {
        type            cyclic;
    }
    streamwiseOut
    {
        type            cyclic;
    }
    front
    {
        type            cyclic;
    }
    back
    {
        type            cyclic;
    }
    procBoundary1to0
    {
        type            processor;
        value           nonuniform List<scalar> 
240
(
1.1671969e-07
1.0642777e-07
1.8143619e-07
1.9156918e-07
1.1714538e-07
1.12268e-07
1.8027982e-07
1.8711584e-07
1.1785988e-07
1.1572201e-07
1.7914892e-07
1.8509423e-07
1.1689547e-07
1.169609e-07
1.7905413e-07
1.8492303e-07
1.1815362e-07
1.1759084e-07
1.7844372e-07
1.8495718e-07
1.2074715e-07
1.1940973e-07
1.7766238e-07
1.8393223e-07
1.2342306e-07
1.215606e-07
1.7780234e-07
1.8302512e-07
1.2598939e-07
1.2376598e-07
1.7874842e-07
1.8264957e-07
1.2864469e-07
1.2610226e-07
1.8004397e-07
1.8271201e-07
1.3152307e-07
1.2862884e-07
1.8141024e-07
1.8309745e-07
1.3464254e-07
1.3134158e-07
1.8276257e-07
1.8377136e-07
1.3795299e-07
1.3420187e-07
1.8411317e-07
1.8473265e-07
1.41362e-07
1.3715556e-07
1.8549727e-07
1.8597627e-07
1.4479434e-07
1.4014407e-07
1.869525e-07
1.87492e-07
1.4818078e-07
1.431092e-07
1.8849987e-07
1.892593e-07
1.5146101e-07
1.459977e-07
1.9013858e-07
1.9123783e-07
1.5458558e-07
1.4876259e-07
1.9184946e-07
1.9337708e-07
1.5751592e-07
1.513628e-07
1.9360027e-07
1.9562146e-07
1.6022354e-07
1.5376203e-07
1.9535119e-07
1.9791441e-07
1.6268892e-07
1.5593164e-07
1.9705998e-07
2.0020167e-07
1.6490027e-07
1.5785063e-07
1.9868588e-07
2.0243358e-07
1.6685212e-07
1.595053e-07
2.0019229e-07
2.0456644e-07
1.6854418e-07
1.6088867e-07
2.0154827e-07
2.0656318e-07
1.6998031e-07
1.6199978e-07
2.0272917e-07
2.0839343e-07
1.7116773e-07
1.628429e-07
2.0371653e-07
2.1003324e-07
1.7211631e-07
1.6342677e-07
2.0449779e-07
2.1146472e-07
1.7283812e-07
1.637639e-07
2.0506559e-07
2.1267543e-07
1.7334702e-07
1.6386984e-07
2.0541796e-07
2.136578e-07
1.7365828e-07
1.6376281e-07
2.0555624e-07
2.1440815e-07
1.7378834e-07
1.6346319e-07
2.0548542e-07
2.1492695e-07
1.737546e-07
1.6299283e-07
2.0521367e-07
2.1521795e-07
1.735752e-07
1.6237476e-07
2.0475188e-07
2.1528774e-07
1.732688e-07
1.6163296e-07
2.0411325e-07
2.1514541e-07
1.7285442e-07
1.6079201e-07
2.0331287e-07
2.1480216e-07
1.7235122e-07
1.5987676e-07
2.0236738e-07
2.1427097e-07
1.717783e-07
1.5891201e-07
2.0129453e-07
2.1356622e-07
1.7115448e-07
1.5792215e-07
2.0011283e-07
2.1270335e-07
1.7049809e-07
1.5693089e-07
1.9884109e-07
2.1169849e-07
1.6982676e-07
1.5596083e-07
1.9749803e-07
2.1056818e-07
1.6915719e-07
1.5503316e-07
1.9610188e-07
2.0932903e-07
1.6850498e-07
1.5416723e-07
1.9466999e-07
2.0799748e-07
1.6788444e-07
1.5338021e-07
1.9321844e-07
2.0658966e-07
1.6730842e-07
1.5268656e-07
1.9176172e-07
2.0512129e-07
1.6678821e-07
1.5209766e-07
1.9031246e-07
2.036077e-07
1.663334e-07
1.5162119e-07
1.8888116e-07
2.0206406e-07
1.6595188e-07
1.5126058e-07
1.8747613e-07
2.0050568e-07
1.6564971e-07
1.5101432e-07
1.8610338e-07
1.9894868e-07
1.6543122e-07
1.5087516e-07
1.8476672e-07
1.9741069e-07
1.6529894e-07
1.508293e-07
1.8346805e-07
1.9591204e-07
1.6525369e-07
1.5085545e-07
1.8220787e-07
1.9447706e-07
1.6529453e-07
1.5092401e-07
1.809861e-07
1.9313571e-07
1.6541876e-07
1.5099625e-07
1.7980305e-07
1.9192532e-07
1.6562176e-07
1.5102365e-07
1.7866088e-07
1.9089267e-07
1.6589665e-07
1.5094688e-07
1.775657e-07
1.900965e-07
1.6623389e-07
1.5069702e-07
1.765294e-07
1.8960816e-07
1.666193e-07
1.502062e-07
1.7557265e-07
1.8950221e-07
1.6703099e-07
1.4941779e-07
1.7472678e-07
1.8984602e-07
1.6744396e-07
1.4820004e-07
1.7402352e-07
1.9078211e-07
1.6784875e-07
1.4609945e-07
1.7346126e-07
1.9277181e-07
1.6821072e-07
1.4276547e-07
1.730286e-07
1.9615687e-07
)
;
    }
    procBoundary1to0throughback
    {
        type            processorCyclic;
        value           nonuniform List<scalar> 
240
(
8.7295182e-08
1.0447661e-07
1.0715718e-07
1.0849793e-07
1.1197335e-07
1.166536e-07
1.2065926e-07
1.2381703e-07
1.2655286e-07
1.2921476e-07
1.3197788e-07
1.3489871e-07
1.3796815e-07
1.4114418e-07
1.4437031e-07
1.4758621e-07
1.507337e-07
1.537608e-07
1.566239e-07
1.5928836e-07
1.6172825e-07
1.6392563e-07
1.6586954e-07
1.6755507e-07
1.6898239e-07
1.7015594e-07
1.7108368e-07
1.7177666e-07
1.7224831e-07
1.7251407e-07
1.7259106e-07
1.7249771e-07
1.722535e-07
1.7187861e-07
1.7139371e-07
1.7081963e-07
1.7017716e-07
1.6948669e-07
1.6876806e-07
1.6804024e-07
1.6732111e-07
1.6662731e-07
1.6597398e-07
1.6537466e-07
1.6484115e-07
1.6438339e-07
1.6400944e-07
1.6372539e-07
1.6353534e-07
1.634414e-07
1.6344357e-07
1.6353969e-07
1.6372518e-07
1.6399285e-07
1.6433244e-07
1.6472904e-07
1.6516026e-07
1.656006e-07
1.6604066e-07
1.6644282e-07
1.0748809e-07
1.1094209e-07
1.1216373e-07
1.1288563e-07
1.1420861e-07
1.1713397e-07
1.2035417e-07
1.2338014e-07
1.2628435e-07
1.2918651e-07
1.3213908e-07
1.3514557e-07
1.3818299e-07
1.4121536e-07
1.44201e-07
1.4709344e-07
1.4984572e-07
1.5241529e-07
1.547709e-07
1.5688816e-07
1.5874978e-07
1.6034541e-07
1.6167095e-07
1.627278e-07
1.635221e-07
1.6406388e-07
1.6436648e-07
1.6444613e-07
1.6432096e-07
1.640108e-07
1.6353713e-07
1.6292258e-07
1.6219056e-07
1.6136498e-07
1.6046997e-07
1.5952954e-07
1.5856732e-07
1.576062e-07
1.5666803e-07
1.5577321e-07
1.5494035e-07
1.541859e-07
1.5352364e-07
1.5296429e-07
1.5251494e-07
1.5217847e-07
1.5195287e-07
1.5183046e-07
1.5179704e-07
1.5183093e-07
1.5190205e-07
1.5197106e-07
1.5198841e-07
1.5189311e-07
1.5161335e-07
1.5107664e-07
1.5021923e-07
1.489e-07
1.4665268e-07
1.4309843e-07
1.8001141e-07
1.802279e-07
1.8019519e-07
1.7946024e-07
1.7800806e-07
1.7654361e-07
1.7636045e-07
1.7727344e-07
1.7865883e-07
1.8012063e-07
1.8152461e-07
1.8287762e-07
1.8423525e-07
1.8565307e-07
1.8716638e-07
1.8878567e-07
1.9049869e-07
1.9227592e-07
1.9407706e-07
1.9585698e-07
1.9757067e-07
1.991767e-07
2.0063934e-07
2.0192958e-07
2.0302525e-07
2.0391071e-07
2.0457611e-07
2.0501682e-07
2.052334e-07
2.0523026e-07
2.0501522e-07
2.0459907e-07
2.0399512e-07
2.0321878e-07
2.0228715e-07
2.0121858e-07
2.0003226e-07
1.9874781e-07
1.9738479e-07
1.9596233e-07
1.9449871e-07
1.9301096e-07
1.9151455e-07
1.9002307e-07
1.8854804e-07
1.8709871e-07
1.8568209e-07
1.8430298e-07
1.8296429e-07
1.8166747e-07
1.8041329e-07
1.7920294e-07
1.7803938e-07
1.7692913e-07
1.7588433e-07
1.7492568e-07
1.7408528e-07
1.7339936e-07
1.7287438e-07
1.7252196e-07
1.8674529e-07
1.8373504e-07
1.827215e-07
1.8233736e-07
1.8168391e-07
1.8022782e-07
1.7943146e-07
1.7964612e-07
1.8057276e-07
1.8192954e-07
1.8354601e-07
1.8534085e-07
1.8728478e-07
1.8935411e-07
1.915103e-07
1.937273e-07
1.9597668e-07
1.9822729e-07
2.0044655e-07
2.0260197e-07
2.0466261e-07
2.0660041e-07
2.0839098e-07
2.1001405e-07
2.1145356e-07
2.1269745e-07
2.137374e-07
2.1456857e-07
2.1518966e-07
2.1560193e-07
2.1580923e-07
2.1581778e-07
2.1563587e-07
2.1527356e-07
2.1474243e-07
2.1405523e-07
2.1322559e-07
2.1226774e-07
2.1119619e-07
2.1002549e-07
2.0876999e-07
2.0744371e-07
2.0606026e-07
2.0463291e-07
2.0317479e-07
2.0169924e-07
2.0022047e-07
1.9875432e-07
1.9731946e-07
1.9593875e-07
1.9464093e-07
1.934624e-07
1.9244946e-07
1.9166094e-07
1.9116893e-07
1.9104963e-07
1.9137334e-07
1.9228764e-07
1.9425509e-07
1.9762065e-07
)
;
    }
}


// ************************************************************************* //
