/*--------------------------------*- C++ -*----------------------------------*\
| =========                 |                                                 |
| \\      /  F ield         | OpenFOAM: The Open Source CFD Toolbox           |
|  \\    /   O peration     | Version:  3.0.1                                 |
|   \\  /    A nd           | Web:      www.OpenFOAM.org                      |
|    \\/     M anipulation  |                                                 |
\*---------------------------------------------------------------------------*/
FoamFile
{
    version     2.0;
    format      ascii;
    class       surfaceScalarField;
    location    "450";
    object      phi;
}
// * * * * * * * * * * * * * * * * * * * * * * * * * * * * * * * * * * * * * //

dimensions      [0 3 -1 0 0 0 0];

internalField   nonuniform List<scalar> 
1072
(
0.55372789
7.2184297e-08
6.9678032e-09
0.55372778
8.9136447e-08
1.271749e-09
0.55372785
-8.3432594e-08
3.7848907e-10
-1.0737073e-07
-1.0463447e-09
0.487326
6.3416421e-08
6.5582663e-09
0.48732592
1.5593754e-07
1.0766012e-09
0.48732593
-7.9008346e-08
1.3327853e-09
-1.8237062e-07
2.7974866e-12
0.39653678
5.7354538e-08
4.1865517e-09
0.3965367
2.2544925e-07
3.2709835e-10
0.39653672
-7.5122656e-08
1.8667751e-09
-2.5505606e-07
5.5092899e-10
0.33806031
6.661053e-08
3.6720713e-09
0.33806022
3.0268306e-07
1.6917166e-10
0.33806025
-9.1219715e-08
1.6923073e-09
-3.3279542e-07
6.1159784e-10
0.30731422
1.5215366e-07
3.5089837e-09
0.30731408
4.4336502e-07
4.4474939e-10
0.30731417
-1.8500532e-07
1.6443841e-09
-4.7590403e-07
4.6865955e-10
0.29333178
3.0787538e-07
3.4320045e-09
0.29333158
6.4876934e-07
8.0260593e-10
0.29333173
-3.4721414e-07
1.3964538e-09
-6.840104e-07
3.1487698e-10
0.28972299
4.6800243e-07
3.2288866e-09
0.28972279
8.546879e-07
1.1018671e-09
0.28972294
-5.1119583e-07
1.1545282e-09
-8.9114699e-07
1.4397254e-10
0.29368461
5.8600036e-07
2.7087747e-09
0.29368446
1.0106231e-06
1.2936071e-09
0.29368458
-6.306279e-07
9.4878104e-10
-1.0467298e-06
1.9205045e-10
0.30393519
6.4905969e-07
2.0163102e-09
0.3039351
1.101701e-06
1.3621742e-09
0.30393516
-6.9319001e-07
7.5795516e-10
-1.136209e-06
4.215306e-10
0.31971179
6.6353244e-07
1.2935155e-09
0.31971176
1.135771e-06
1.3271042e-09
0.31971177
-7.0573834e-07
5.6362904e-10
-1.1676809e-06
6.6350763e-10
0.34049836
6.4173876e-07
6.2824885e-10
0.34049837
1.128461e-06
1.2354382e-09
0.34049835
-6.8097184e-07
3.6181832e-10
-1.156985e-06
8.6107202e-10
0.36597958
5.9610401e-07
1.0022125e-10
0.36597961
1.0958027e-06
1.1200515e-09
0.36597957
-6.317386e-07
1.8771887e-10
-1.120332e-06
1.0132914e-09
0.39600588
5.378356e-07
-2.2674413e-10
0.39600593
1.0519122e-06
1.0009802e-09
0.39600587
-5.6936612e-07
8.2271306e-11
-1.0719686e-06
1.1217212e-09
0.43053993
4.7625169e-07
-5.6435753e-10
0.43053998
1.0082781e-06
8.8913545e-10
0.43053991
-5.0313016e-07
-2.2522547e-11
-1.023481e-06
1.1898911e-09
0.46960504
4.1809564e-07
-8.1052416e-10
0.46960508
9.732904e-07
7.8939537e-10
0.46960502
-4.3984465e-07
-1.2870205e-10
-9.8334584e-07
1.2189572e-09
0.51325017
3.6737059e-07
-9.7715836e-10
0.5132502
9.519804e-07
7.0250101e-10
0.51325014
-3.8360537e-07
-2.1226982e-10
-9.5668113e-07
1.2142932e-09
0.56153267
3.2546089e-07
-1.0772014e-09
0.56153268
9.4614868e-07
6.270599e-10
0.56153263
-3.358979e-07
-2.730422e-10
-9.4537556e-07
1.1818723e-09
0.61451341
2.9162969e-07
-1.1235456e-09
0.6145134
9.5488758e-07
5.6086601e-10
0.61451336
-2.9609541e-07
-3.1236204e-10
-9.4861061e-07
1.1277037e-09
0.67225812
2.6371554e-07
-1.1281279e-09
0.6722581
9.7533703e-07
5.0259463e-10
0.67225807
-2.6215161e-07
-3.3265267e-10
-9.6361639e-07
1.0575124e-09
0.73484048
2.3884005e-07
-1.1014858e-09
0.73484045
1.0034829e-06
4.5106446e-10
0.73484042
-2.3130298e-07
-3.3694814e-10
-9.8646679e-07
9.7646124e-10
0.80234465
2.1399963e-07
-1.0525963e-09
0.80234462
1.0348515e-06
4.054076e-10
0.80234459
-2.0065496e-07
-3.2849438e-10
-1.0127706e-06
8.8904634e-10
0.87486636
1.8648819e-07
-9.8891302e-10
0.87486634
1.0650306e-06
3.650594e-10
0.87486631
-1.676002e-07
-3.1045336e-10
-1.0381896e-06
7.9907844e-10
0.9525125
1.541523e-07
-9.1648564e-10
0.95251248
1.0900088e-06
3.2967363e-10
0.95251244
-1.3007064e-07
-2.857089e-10
-1.0587766e-06
7.0970447e-10
1.0353995
1.155092e-07
-8.4012983e-10
1.0353995
1.1063605e-06
2.9903339e-10
1.0353995
-8.6653999e-08
-2.5675833e-10
-1.0711583e-06
6.2346383e-10
1.1236511
6.9766332e-08
-7.6361843e-10
1.1236511
1.1113157e-06
2.7298e-10
1.1236511
-3.6613048e-08
-2.2567594e-10
-1.0726051e-06
5.423811e-10
1.2173954
1.6778571e-08
-6.8983996e-10
1.2173955
1.102754e-06
2.5135569e-10
1.2173954
2.0156765e-08
-1.9413113e-10
-1.0610257e-06
4.679179e-10
1.3167619
-4.302912e-08
-6.209539e-10
1.316762
1.0791552e-06
2.3396426e-10
1.3167619
8.3203425e-08
-1.6334563e-10
-1.0349181e-06
4.0108915e-10
1.4218785
-1.0875434e-07
-5.5849882e-10
1.4218786
1.0395292e-06
2.2057787e-10
1.4218785
1.5161111e-07
-1.3478571e-10
-9.9330013e-07
3.4250971e-10
1.5328687
-1.7911222e-07
-5.0352623e-10
1.5328688
9.8334139e-07
2.1069738e-10
1.5328687
2.2409217e-07
-1.0902327e-10
-9.3563626e-07
2.9279907e-10
1.6498489
-2.5252584e-07
-4.5668279e-10
1.6498489
9.1044109e-07
2.0469619e-10
1.6498489
2.990763e-07
-8.6475442e-11
-8.6176787e-07
2.5200177e-10
1.7729256
-3.2720855e-07
-4.1828662e-10
1.7729257
8.2100322e-07
2.0221096e-10
1.7729256
3.7479178e-07
-6.7419817e-11
-7.7185459e-07
2.199998e-10
1.9021939
-4.0123726e-07
-3.8838698e-10
1.9021941
7.1548267e-07
2.0252222e-10
1.902194
4.4933751e-07
-5.2009439e-11
-6.6632873e-07
1.9653566e-10
2.0377349
-4.7261718e-07
-3.6681771e-10
2.037735
5.9458076e-07
2.053541e-10
2.0377349
5.2074683e-07
-4.0292762e-11
-5.4586358e-07
1.8125181e-10
2.1796138
-5.3933971e-07
-3.5324014e-10
2.1796139
4.5922601e-07
2.1040643e-10
2.1796138
5.8704441e-07
-3.2228675e-11
-4.1135484e-07
1.737107e-10
2.327879
-5.9943547e-07
-3.4717784e-10
2.3278791
3.1056651e-07
2.1736805e-10
2.3278791
6.4629849e-07
-2.7701964e-11
-2.6391355e-07
1.7328148e-10
2.4825601
-6.5102471e-07
-3.4804641e-10
2.4825603
1.4997208e-07
2.2592455e-10
2.4825602
6.966704e-07
-2.653709e-11
-1.0486903e-07
1.7931388e-10
2.643667
-6.9236714e-07
-3.5517776e-10
2.6436672
-2.0955996e-08
2.3576338e-10
2.6436671
7.3646368e-07
-2.851058e-11
6.4220608e-08
1.9114505e-10
2.8111886
-7.2191302e-07
-3.6784075e-10
2.8111888
-2.003696e-07
2.4657732e-10
2.8111887
7.6417428e-07
-3.3360928e-11
2.4155235e-07
2.0806014e-10
2.9850921
-7.383566e-07
-3.8525809e-10
2.9850922
-3.861544e-07
2.5806643e-10
2.9850922
7.7854332e-07
-4.0797261e-11
4.2505813e-07
2.2931185e-10
3.1653219
-7.4069311e-07
-4.0662154e-10
3.1653221
-5.7590762e-07
2.6994039e-10
3.1653221
7.7861327e-07
-5.0506415e-11
6.1238185e-07
2.5413522e-10
3.3517995
-7.2827928e-07
-4.3110439e-10
3.3517997
-7.6691356e-07
2.8191921e-10
3.3517997
7.6378768e-07
-6.2159154e-11
8.0085408e-07
2.8175641e-10
3.5444223
-7.0089718e-07
-4.5787316e-10
3.5444225
-9.56117e-07
2.9373466e-10
3.5444226
7.3389439e-07
-7.5415242e-11
9.8746469e-07
3.1139973e-10
3.743064
-6.5882037e-07
-4.860979e-10
3.7430642
-1.1400945e-06
3.0513152e-10
3.7430642
6.8925087e-07
-8.99277e-11
1.1688335e-06
3.422947e-10
3.9475738
-6.0288008e-07
-5.1496208e-10
3.9475739
-1.3150241e-06
3.1587063e-10
3.947574
6.3072974e-07
-1.0534452e-10
1.341179e-06
3.7368134e-10
4.1577766
-5.3452769e-07
-5.4367267e-10
4.1577767
-1.4766552e-06
3.2573057e-10
4.1577768
5.5982052e-07
-1.2131122e-10
1.5002878e-06
4.0481532e-10
4.3734732
-4.5588697e-07
-5.7147113e-10
4.3734734
-1.6202835e-06
3.3450955e-10
4.3734734
4.7868124e-07
-1.3747195e-10
1.6414886e-06
4.3497488e-10
4.5944407
-3.6978607e-07
-5.9764563e-10
4.5944409
-1.7407424e-06
3.4202672e-10
4.5944409
3.9016959e-07
-1.5347004e-10
1.7596429e-06
4.6346398e-10
4.8204327
-2.7975322e-07
-6.2154622e-10
4.8204328
-1.8324287e-06
3.4812117e-10
4.8204329
2.978378e-07
-1.6894695e-10
1.8491696e-06
4.8962836e-10
5.0511802
-1.8995357e-07
-6.4260339e-10
5.0511802
-1.8893968e-06
3.5264683e-10
5.0511803
2.058686e-07
-1.8353873e-10
1.9041385e-06
5.1286418e-10
5.2863921
-1.0503703e-07
-6.6034988e-10
5.2863921
-1.9055672e-06
3.5545953e-10
5.2863922
1.1892198e-07
-1.9689479e-10
1.9184771e-06
5.326345e-10
5.5257568
-2.9862044e-08
-6.7444404e-10
5.5257567
-1.8751125e-06
3.5639125e-10
5.5257568
4.1858117e-08
-2.0871061e-10
1.8863565e-06
5.4848828e-10
5.7689427
3.0936499e-08
-6.8469374e-10
5.7689426
-1.7930916e-06
3.5521042e-10
5.7689427
-2.0695757e-08
-2.1866294e-10
1.8028238e-06
5.6009257e-10
6.0156001
7.3548978e-08
-6.9107234e-10
6.0156
-1.6563928e-06
3.5154992e-10
6.0156
-6.4946974e-08
-2.2645728e-10
1.6647456e-06
5.6727501e-10
6.2653623
9.5733283e-08
-6.9370829e-10
6.2653621
-1.4650119e-06
3.447912e-10
6.2653621
-8.8679178e-08
-2.3194818e-10
1.4720874e-06
5.7006156e-10
6.5178474
9.7598786e-08
-6.9285109e-10
6.5178471
-1.2236344e-06
3.3389804e-10
6.5178471
-9.2032322e-08
-2.3504677e-10
1.2295003e-06
5.6872334e-10
6.77266
8.2242666e-08
-6.8877521e-10
6.7726597
-9.4343088e-07
3.1717523e-10
6.7726597
-7.8131239e-08
-2.3574437e-10
9.481251e-07
5.638558e-10
7.0293931
5.595266e-08
-6.8165896e-10
7.0293928
-6.4390724e-07
2.920331e-10
7.0293928
-5.3273302e-08
-2.3374846e-10
6.4745874e-07
5.5653193e-10
7.2876301
2.7618256e-08
-6.7168939e-10
7.2876298
-3.545719e-07
2.5505268e-10
7.2876298
-2.6311786e-08
-2.2743026e-10
3.5704377e-07
5.4859294e-10
7.5469468
6.8640369e-09
-6.5883634e-10
7.5469465
-1.1711558e-07
2.0158819e-10
7.5469465
-6.7253249e-09
-2.1384896e-10
1.186515e-07
5.4048069e-10
7.8069134
-5.7499955e-10
7.8069133
1.0829127e-10
7.8069133
-1.6478094e-10
4.7608678e-10
0.55372787
6.0849734e-08
0.55372777
7.7795361e-08
0.55372784
-7.1854332e-08
-9.5499602e-08
0.48732594
5.4831383e-08
0.48732588
1.4354206e-07
0.48732588
-6.9662242e-08
-1.6815118e-07
0.39653675
5.9619644e-08
0.39653668
2.2625384e-07
0.39653669
-7.8397445e-08
-2.5230286e-07
0.33806028
7.1905381e-08
0.3380602
3.097761e-07
0.33806022
-9.9033184e-08
-3.3510329e-07
0.3073142
1.5972494e-07
0.30731406
4.5565047e-07
0.30731415
-1.956974e-07
-4.8177492e-07
0.29333176
3.1614914e-07
0.29333156
6.6385604e-07
0.29333171
-3.579883e-07
-6.909737e-07
0.28972296
4.7609416e-07
0.28972276
8.7012985e-07
0.28972291
-5.1998699e-07
-8.9729838e-07
0.29368458
5.939252e-07
0.29368443
1.0252842e-06
0.29368454
-6.3676486e-07
-1.0511569e-06
0.30393515
6.5718389e-07
0.30393507
1.1154199e-06
0.30393513
-6.9682682e-07
-1.138869e-06
0.31971176
6.7215816e-07
0.31971173
1.148697e-06
0.31971175
-7.0725566e-07
-1.1689483e-06
0.34049834
6.5096007e-07
0.34049835
1.1407291e-06
0.34049832
-6.8071854e-07
-1.1572805e-06
0.36597956
6.0600612e-07
0.36597959
1.1074708e-06
0.36597955
-6.2993073e-07
-1.1199411e-06
0.39600586
5.4846249e-07
0.39600591
1.0629993e-06
0.39600585
-5.6614622e-07
-1.0710908e-06
0.43053991
4.8739374e-07
0.43053996
1.0187929e-06
0.4305399
-4.987005e-07
-1.0223235e-06
0.46960503
4.2954366e-07
0.46960506
9.8324265e-07
0.469605
-4.3445357e-07
-9.8203085e-07
0.51325016
3.7892455e-07
0.51325018
9.6138576e-07
0.51325013
-3.7749144e-07
-9.552952e-07
0.56153266
3.369356e-07
0.56153266
9.5502652e-07
0.56153262
-3.2927834e-07
-9.4397445e-07
0.6145134
3.0285942e-07
0.61451339
9.6327142e-07
0.61451335
-2.8915948e-07
-9.4722431e-07
0.6722581
2.7455743e-07
0.67225808
9.8325605e-07
0.67225805
-2.5505948e-07
-9.6225483e-07
0.73484046
2.4917646e-07
0.73484044
1.0109614e-06
0.73484041
-2.241874e-07
-9.8512576e-07
0.80234464
2.2373898e-07
0.80234461
1.041909e-06
0.80234458
-1.9362412e-07
-1.011437e-06
0.87486635
1.955643e-07
0.87486632
1.0716831e-06
0.87486629
-1.6074084e-07
-1.0368458e-06
0.95251249
1.6252257e-07
0.95251246
1.0962695e-06
0.95251243
-1.2345118e-07
-1.0574032e-06
1.0353995
1.2315206e-07
1.0353995
1.1122404e-06
1.0353995
-8.0327214e-08
-1.0697361e-06
1.1236511
7.6678424e-08
1.1236511
1.1168242e-06
1.1236511
-3.061844e-08
-1.0711164e-06
1.2173954
2.2971677e-08
1.2173954
1.1078993e-06
1.2173954
2.579095e-08
-1.059455e-06
1.3167619
-3.7531213e-08
1.3167619
1.0839453e-06
1.3167619
8.845872e-08
-1.0332518e-06
1.4218785
-1.0391856e-07
1.4218786
1.0439702e-06
1.4218785
1.5647496e-07
-9.9152762e-07
1.5328687
-1.7489868e-07
1.5328688
9.8743782e-07
1.5328687
2.2855737e-07
-9.3374828e-07
1.6498488
-2.4888973e-07
1.6498489
9.141989e-07
1.6498488
3.0314026e-07
-8.5975693e-07
1.7729256
-3.2410176e-07
1.7729257
8.2442893e-07
1.7729256
3.7845562e-07
-7.69715e-07
1.9021939
-3.9860965e-07
1.902194
7.1858199e-07
1.902194
4.5260543e-07
-6.6405662e-07
2.0377348
-4.7041756e-07
2.037735
5.9735875e-07
2.0377349
5.2362544e-07
-5.4345678e-07
2.1796138
-5.3751662e-07
2.1796139
4.6168713e-07
2.1796138
5.8954228e-07
-4.0881279e-07
2.327879
-5.9793777e-07
2.3278791
3.1271471e-07
2.3278791
6.4842575e-07
-2.6123742e-07
2.4825601
-6.4980204e-07
2.4825603
1.518109e-07
2.4825602
6.9843845e-07
-1.0206184e-07
2.643667
-6.9137036e-07
2.6436672
-1.9423311e-08
2.6436671
7.3788495e-07
6.7154024e-08
2.8111886
-7.2109445e-07
2.8111888
-1.9913991e-07
2.8111887
7.6526208e-07
2.4460521e-07
2.985092
-7.3767047e-07
2.9850922
-3.8522447e-07
2.9850922
7.7931177e-07
4.2822165e-07
3.1653219
-7.400958e-07
3.1653221
-5.7527383e-07
3.1653221
7.7907728e-07
6.1564509e-07
3.3517995
-7.2772971e-07
3.3517997
-7.6657156e-07
3.3517997
7.6396299e-07
8.0420379e-07
3.5444223
-7.0035725e-07
3.5444225
-9.5606134e-07
3.5444226
7.3379769e-07
9.9088521e-07
3.743064
-6.5825542e-07
3.7430642
-1.1403182e-06
3.7430643
6.889e-07
1.1723065e-06
3.9475738
-6.0225948e-07
3.947574
-1.3155181e-06
3.947574
6.3014397e-07
1.3446835e-06
4.1577766
-5.3382548e-07
4.1577767
-1.4774079e-06
4.1577768
5.5902096e-07
1.5037995e-06
4.3734732
-4.5508274e-07
4.3734734
-1.6212801e-06
4.3734735
4.7769128e-07
1.6449803e-06
4.5944408
-3.6886592e-07
4.5944409
-1.7419643e-06
4.594441
3.890155e-07
1.7630833e-06
4.8204328
-2.7871087e-07
4.8204328
-1.8338528e-06
4.8204329
2.9654934e-07
1.8525236e-06
5.0511802
-1.8879162e-07
5.0511802
-1.8909951e-06
5.0511803
2.0447964e-07
1.9073664e-06
5.2863921
-1.0376816e-07
5.2863921
-1.9073059e-06
5.2863922
1.1747091e-07
1.9215345e-06
5.5257568
-2.8510073e-08
5.5257567
-1.8769516e-06
5.5257568
4.0387542e-08
1.8891935e-06
5.7689427
3.2336065e-08
5.7689426
-1.7949853e-06
5.7689427
-2.2139316e-08
1.8053858e-06
6.0156001
7.4950169e-08
6.0156
-1.6582926e-06
6.0156
-6.6311229e-08
1.666972e-06
6.2653623
9.7082177e-08
6.2653621
-1.4668665e-06
6.2653621
-8.9914677e-08
1.4739177e-06
6.5178474
9.8839273e-08
6.5178472
-1.2253986e-06
6.5178472
-9.3092015e-08
1.2308779e-06
6.77266
8.3324435e-08
6.7726597
-9.4507847e-07
6.7726597
-7.8971262e-08
9.4900934e-07
7.0293931
5.6840155e-08
7.0293928
-6.454537e-07
7.0293928
-5.3846105e-08
6.4784699e-07
7.2876301
2.8293076e-08
7.2876298
-3.561133e-07
7.2876298
-2.6539224e-08
3.5701852e-07
7.5469468
7.3087327e-09
7.5469465
-1.1876812e-07
7.5469465
-6.4914091e-09
1.1840411e-07
7.8069134
7.8069133
7.8069133
)
;

boundaryField
{
    movingWall
    {
        type            calculated;
        value           uniform 0;
    }
    CPLReceiveMD
    {
        type            calculated;
        value           uniform 0;
    }
    streamwiseIn
    {
        type            cyclic;
        value           nonuniform List<scalar> 
120
(
-0.55372796
-0.48732601
-0.39653679
-0.33806034
-0.30731431
-0.29333194
-0.28972315
-0.29368473
-0.30393525
-0.31971181
-0.34049834
-0.36597954
-0.39600583
-0.43053987
-0.46960499
-0.51325012
-0.56153263
-0.61451338
-0.67225809
-0.73484045
-0.80234463
-0.87486634
-0.95251247
-1.0353995
-1.1236511
-1.2173954
-1.3167619
-1.4218785
-1.5328687
-1.6498488
-1.7729256
-1.9021939
-2.0377348
-2.1796137
-2.3278789
-2.4825601
-2.643667
-2.8111886
-2.985092
-3.1653219
-3.3517995
-3.5444224
-3.7430641
-3.9475738
-4.1577766
-4.3734733
-4.5944408
-4.8204328
-5.0511803
-5.2863922
-5.5257568
-5.7689428
-6.0156001
-6.2653623
-6.5178474
-6.77266
-7.0293931
-7.2876301
-7.5469468
-7.8069134
-0.55372794
-0.48732594
-0.39653677
-0.3380603
-0.30731429
-0.29333192
-0.28972312
-0.29368469
-0.30393521
-0.31971177
-0.34049831
-0.36597951
-0.3960058
-0.43053985
-0.46960496
-0.5132501
-0.56153261
-0.61451336
-0.67225807
-0.73484043
-0.80234461
-0.87486632
-0.95251245
-1.0353995
-1.1236511
-1.2173954
-1.3167618
-1.4218784
-1.5328686
-1.6498488
-1.7729255
-1.9021939
-2.0377348
-2.1796137
-2.3278789
-2.48256
-2.6436669
-2.8111886
-2.985092
-3.1653219
-3.3517995
-3.5444224
-3.7430641
-3.9475738
-4.1577766
-4.3734733
-4.5944408
-4.8204328
-5.0511803
-5.2863922
-5.5257569
-5.7689428
-6.0156002
-6.2653623
-6.5178474
-6.77266
-7.0293931
-7.2876301
-7.5469468
-7.8069134
)
;
    }
    streamwiseOut
    {
        type            cyclic;
        value           nonuniform List<scalar> 
120
(
0.55372796
0.48732601
0.39653679
0.33806034
0.30731431
0.29333194
0.28972315
0.29368473
0.30393525
0.31971181
0.34049834
0.36597954
0.39600583
0.43053987
0.46960499
0.51325012
0.56153263
0.61451338
0.67225809
0.73484045
0.80234463
0.87486634
0.95251247
1.0353995
1.1236511
1.2173954
1.3167619
1.4218785
1.5328687
1.6498488
1.7729256
1.9021939
2.0377348
2.1796137
2.3278789
2.4825601
2.643667
2.8111886
2.985092
3.1653219
3.3517995
3.5444224
3.7430641
3.9475738
4.1577766
4.3734733
4.5944408
4.8204328
5.0511803
5.2863922
5.5257568
5.7689428
6.0156001
6.2653623
6.5178474
6.77266
7.0293931
7.2876301
7.5469468
7.8069134
0.55372794
0.48732594
0.39653677
0.3380603
0.30731429
0.29333192
0.28972312
0.29368469
0.30393521
0.31971177
0.34049831
0.36597951
0.3960058
0.43053985
0.46960496
0.5132501
0.56153261
0.61451336
0.67225807
0.73484043
0.80234461
0.87486632
0.95251245
1.0353995
1.1236511
1.2173954
1.3167618
1.4218784
1.5328686
1.6498488
1.7729255
1.9021939
2.0377348
2.1796137
2.3278789
2.48256
2.6436669
2.8111886
2.985092
3.1653219
3.3517995
3.5444224
3.7430641
3.9475738
4.1577766
4.3734733
4.5944408
4.8204328
5.0511803
5.2863922
5.5257569
5.7689428
6.0156002
6.2653623
6.5178474
6.77266
7.0293931
7.2876301
7.5469468
7.8069134
)
;
    }
    front
    {
        type            cyclic;
        value           nonuniform 0();
    }
    back
    {
        type            cyclic;
        value           nonuniform 0();
    }
    procBoundary1to0
    {
        type            processor;
        value           nonuniform List<scalar> 
240
(
7.356891e-09
1.172688e-09
5.3671429e-11
-1.2442343e-09
6.8034394e-09
1.0183636e-09
9.9708466e-10
-2.1947497e-10
4.2596958e-09
4.8657874e-10
1.5406581e-09
3.7157276e-10
3.5396127e-09
2.5598143e-10
1.4311858e-09
5.1894999e-10
3.2632115e-09
5.7257188e-10
1.1259979e-09
4.6010398e-10
3.1041981e-09
9.6092384e-10
9.7928353e-10
3.7770953e-10
2.8159568e-09
1.2778527e-09
7.8477132e-10
2.1404884e-10
2.3208404e-09
1.4724734e-09
6.1264733e-10
3.5902045e-10
1.6559264e-09
1.5294567e-09
4.4943866e-10
6.1887296e-10
9.8900697e-10
1.4801092e-09
2.9911086e-10
8.55885e-10
4.0632753e-10
1.3743706e-09
1.734067e-10
1.0430081e-09
2.4332284e-11
1.2419602e-09
1.001676e-10
1.1801978e-09
-3.8355891e-10
1.1057491e-09
-5.9566184e-12
1.2711208e-09
-6.9901454e-10
9.7735588e-10
-1.1451255e-10
1.3196469e-09
-9.2397171e-10
8.6230107e-10
-2.0451966e-10
1.3291031e-09
-1.0711e-09
7.6173043e-10
-2.7401718e-10
1.3058861e-09
-1.1538342e-09
6.7434687e-10
-3.2277463e-10
1.2566301e-09
-1.1852299e-09
5.9806666e-10
-3.5200176e-10
1.1876964e-09
-1.1771843e-09
5.314515e-10
-3.6393498e-10
1.1049215e-09
-1.1400656e-09
4.7314718e-10
-3.614004e-10
1.0134008e-09
-1.0826234e-09
4.2208422e-10
-3.4743135e-10
9.1745049e-10
-1.0120526e-09
3.7748722e-10
-3.2498583e-10
8.2064532e-10
-9.3414808e-10
3.388089e-10
-2.9676211e-10
7.2587863e-10
-8.5348974e-10
3.0565062e-10
-2.6508979e-10
6.3544524e-10
-7.7363775e-10
2.7769702e-10
-2.3190058e-10
5.5114856e-10
-6.9729008e-10
2.5465866e-10
-1.987399e-10
4.7425296e-10
-6.2644705e-10
2.3623067e-10
-1.667202e-10
4.0560666e-10
-5.6251549e-10
2.2208632e-10
-1.372309e-10
3.4568375e-10
-5.0643844e-10
2.1168623e-10
-1.1077655e-10
2.9499461e-10
-4.5877575e-10
2.0527741e-10
-8.7718904e-11
2.5349254e-10
-4.19777e-10
2.0256751e-10
-6.8291473e-11
2.209909e-10
-3.8943777e-10
2.0272814e-10
-5.2612616e-11
1.9718025e-10
-3.6755034e-10
2.0546149e-10
-4.0703993e-11
1.8166087e-10
-3.5374432e-10
2.1045128e-10
-3.2504197e-11
1.7395121e-10
-3.4751944e-10
2.1737479e-10
-2.7882609e-11
1.7340402e-10
-3.4827333e-10
2.2590952e-10
-2.665233e-11
1.7936263e-10
-3.5532457e-10
2.3573717e-10
-2.858144e-11
1.9115008e-10
-3.6793219e-10
2.4654659e-10
-3.3402238e-11
2.0804094e-10
-3.8531186e-10
2.5803532e-10
-4.0819384e-11
2.2928094e-10
-4.0665012e-10
2.6991121e-10
-5.0516503e-11
2.5410049e-10
-4.3111659e-10
2.8189317e-10
-6.2161971e-11
2.8172254e-10
-4.5787502e-10
2.9371221e-10
-7.541395e-11
3.1136932e-10
-4.8609358e-10
3.0511269e-10
-8.9924351e-11
3.4226896e-10
-5.1495432e-10
3.1585516e-10
-1.0534049e-10
3.7366062e-10
-5.4366331e-10
3.2571813e-10
-1.2130721e-10
4.047994e-10
-5.7146127e-10
3.344998e-10
-1.3746835e-10
4.3496311e-10
-5.9763599e-10
3.420192e-10
-1.5346698e-10
4.6345577e-10
-6.2153729e-10
3.4811549e-10
-1.6894443e-10
4.8962306e-10
-6.4259555e-10
3.5264269e-10
-1.8353665e-10
5.128611e-10
-6.6034302e-10
3.5545653e-10
-1.9689316e-10
5.3263306e-10
-6.7443809e-10
3.5638919e-10
-2.0870948e-10
5.484881e-10
-6.8468862e-10
3.5520898e-10
-2.1866205e-10
5.6009329e-10
-6.9106879e-10
3.5154904e-10
-2.2645699e-10
5.6727653e-10
-6.9370644e-10
3.4479069e-10
-2.3194868e-10
5.7006396e-10
-6.9285066e-10
3.3389779e-10
-2.3504788e-10
5.6872645e-10
-6.8877602e-10
3.171751e-10
-2.3574594e-10
5.6385954e-10
-6.8166073e-10
2.9203321e-10
-2.3375048e-10
5.5653607e-10
-6.7169181e-10
2.5505331e-10
-2.274321e-10
5.4859688e-10
-6.5883801e-10
2.0158899e-10
-2.1385016e-10
5.4048332e-10
-5.7499819e-10
1.0829161e-10
-1.6478071e-10
4.7608617e-10
)
;
    }
    procBoundary1to0throughback
    {
        type            processorCyclic;
        value           nonuniform List<scalar> 
240
(
2.324132e-08
1.6200847e-08
1.1866285e-08
9.2803908e-09
7.4963799e-09
5.8999142e-09
4.6373385e-09
3.7188064e-09
3.0854477e-09
2.6641564e-09
2.3874554e-09
2.2032057e-09
2.0725738e-09
1.9650986e-09
1.8665002e-09
1.7688135e-09
1.6682072e-09
1.5635543e-09
1.4552407e-09
1.3445502e-09
1.2332449e-09
1.1232618e-09
1.0164917e-09
9.1465428e-10
8.1920949e-10
7.3135226e-10
6.5198513e-10
5.8171526e-10
5.2090709e-10
4.6970207e-10
4.2804393e-10
3.9570337e-10
3.7230627e-10
3.573589e-10
3.5026942e-10
3.5036729e-10
3.5692005e-10
3.6914839e-10
3.8623908e-10
4.0735697e-10
4.316551e-10
4.5828485e-10
4.8640506e-10
5.1519066e-10
5.4384231e-10
5.7159644e-10
5.9773777e-10
6.2161365e-10
6.4265242e-10
6.6038543e-10
6.7446964e-10
6.8471197e-10
6.9108521e-10
6.937173e-10
6.9285781e-10
6.8878014e-10
6.8166252e-10
6.7169193e-10
6.5883826e-10
5.7500133e-10
1.7143566e-09
3.2143149e-09
3.9155006e-09
3.9130716e-09
3.5184536e-09
2.9518079e-09
2.3198268e-09
1.7427589e-09
1.256969e-09
8.6065729e-10
5.4336305e-10
2.9325377e-10
9.8458644e-11
-4.7780299e-11
-1.4325038e-10
-1.9959328e-10
-2.2955228e-10
-2.5807726e-10
-2.7284638e-10
-2.7728264e-10
-2.7429363e-10
-2.6635404e-10
-2.555154e-10
-2.4342905e-10
-2.3137736e-10
-2.2031063e-10
-2.1155972e-10
-2.0359221e-10
-1.9774948e-10
-1.9503441e-10
-1.9488778e-10
-1.9704242e-10
-2.0128526e-10
-2.0740013e-10
-2.1515411e-10
-2.242976e-10
-2.3456922e-10
-2.457013e-10
-2.5742364e-10
-2.6946824e-10
-2.8157174e-10
-2.9347812e-10
-3.0494126e-10
-3.1572876e-10
-3.2562409e-10
-3.3442896e-10
-3.4196515e-10
-3.4807378e-10
-3.5261004e-10
-3.5543085e-10
-3.5636862e-10
-3.5519233e-10
-3.5153521e-10
-3.4477914e-10
-3.3388791e-10
-3.1716653e-10
-2.9202557e-10
-2.5504662e-10
-2.0158399e-10
-1.0828973e-10
1.1098395e-09
9.9898106e-10
6.4177475e-10
9.2948202e-10
1.2257312e-09
1.4353351e-09
1.5068144e-09
1.45454e-09
1.3359136e-09
1.2005376e-09
1.0752369e-09
9.7065963e-10
8.8766939e-10
8.2047531e-10
7.634505e-10
7.1243384e-10
6.6407151e-10
6.1613903e-10
5.6744672e-10
5.1767915e-10
4.6714832e-10
4.1653766e-10
3.6668884e-10
3.1845609e-10
2.7260301e-10
2.2976232e-10
1.904095e-10
1.5532145e-10
1.2458779e-10
9.8258575e-11
7.6329213e-11
5.8738115e-11
4.5368897e-11
3.6053994e-11
3.0581469e-11
2.8702179e-11
3.0136383e-11
3.4580053e-11
4.1709906e-11
5.1188257e-11
6.2667466e-11
7.5793202e-11
9.0207877e-11
1.0555144e-10
1.2146342e-10
1.3758339e-10
1.535513e-10
1.6900589e-10
1.8358136e-10
1.9692552e-10
2.0873279e-10
2.1867909e-10
2.2646896e-10
2.3195663e-10
2.3505276e-10
2.3574855e-10
2.3375115e-10
2.2743162e-10
2.1384959e-10
1.6478157e-10
3.8951725e-09
4.2102656e-09
3.5212355e-09
3.362358e-09
3.4650965e-09
3.4513025e-09
3.1844733e-09
2.6870057e-09
2.1278394e-09
1.5226273e-09
9.392951e-10
3.9976162e-10
-2.8569751e-11
-2.890764e-10
-5.1363238e-10
-6.6802983e-10
-7.6231968e-10
-8.0751891e-10
-8.1433445e-10
-7.9245115e-10
-7.5021951e-10
-6.9459688e-10
-6.3123701e-10
-5.6464654e-10
-4.9836282e-10
-4.3502889e-10
-3.7654737e-10
-3.2422645e-10
-2.791856e-10
-2.4188329e-10
-2.1249825e-10
-1.9099682e-10
-1.7716709e-10
-1.7065325e-10
-1.7098634e-10
-1.7760541e-10
-1.8987875e-10
-2.0712321e-10
-2.2861939e-10
-2.5362381e-10
-2.8137903e-10
-3.1112151e-10
-3.4208989e-10
-3.7353077e-10
-4.0470488e-10
-4.3489383e-10
-4.6340471e-10
-4.8958497e-10
-5.1283254e-10
-5.3261139e-10
-5.4847144e-10
-5.6008033e-10
-5.6726617e-10
-5.7005501e-10
-5.6871845e-10
-5.6385196e-10
-5.5652887e-10
-5.4859066e-10
-5.4047935e-10
-4.7608693e-10
)
;
    }
}


// ************************************************************************* //
