/*--------------------------------*- C++ -*----------------------------------*\
| =========                 |                                                 |
| \\      /  F ield         | OpenFOAM: The Open Source CFD Toolbox           |
|  \\    /   O peration     | Version:  3.0.1                                 |
|   \\  /    A nd           | Web:      www.OpenFOAM.org                      |
|    \\/     M anipulation  |                                                 |
\*---------------------------------------------------------------------------*/
FoamFile
{
    version     2.0;
    format      ascii;
    class       volVectorField;
    location    "450";
    object      U;
}
// * * * * * * * * * * * * * * * * * * * * * * * * * * * * * * * * * * * * * //

dimensions      [0 1 -1 0 0 0 0];

internalField   nonuniform List<vector> 
480
(
(0.034882674 8.2086763e-10 -5.2122427e-12)
(0.034882668 9.9982861e-10 -1.2747265e-12)
(0.034882666 -9.3414689e-10 1.2636198e-11)
(0.034882672 -1.1403854e-09 -3.2489261e-13)
(0.030699612 1.1936028e-09 -6.6271135e-12)
(0.030699615 2.0376593e-09 -2.8888115e-12)
(0.030699612 -1.4488294e-09 1.2884861e-11)
(0.030699609 -2.4157469e-09 1.9018899e-13)
(0.024980249 9.0227921e-10 -4.0359094e-12)
(0.024980254 2.9516814e-09 -4.6500314e-12)
(0.024980249 -1.1543853e-09 1.285033e-11)
(0.024980247 -3.3841407e-09 -6.1562949e-13)
(0.021296463 8.1879753e-10 1.3507978e-13)
(0.021296466 4.0170932e-09 -6.6085889e-12)
(0.021296461 -1.1310068e-09 1.2340461e-11)
(0.021296462 -4.465757e-09 -3.3405719e-12)
(0.019359585 1.468832e-09 4.0051391e-12)
(0.01935958 5.6863311e-09 -7.7493276e-12)
(0.019359575 -1.9258379e-09 1.133538e-11)
(0.019359584 -6.1779255e-09 -5.6195121e-12)
(0.018478751 3.5374933e-09 6.7441949e-12)
(0.018478737 8.5745072e-09 -8.1503351e-12)
(0.018478733 -4.1066227e-09 1.0528855e-11)
(0.01847875 -9.1113506e-09 -7.2687224e-12)
(0.018251412 6.2662423e-09 8.3342968e-12)
(0.018251397 1.207171e-08 -8.0563299e-12)
(0.018251394 -6.9184921e-09 9.7125739e-12)
(0.01825141 -1.2638546e-08 -8.2996586e-12)
(0.018500976 8.5823296e-09 9.0900964e-12)
(0.018500966 1.5064988e-08 -7.6510371e-12)
(0.018500963 -9.2794785e-09 8.8184932e-12)
(0.018500975 -1.5638905e-08 -8.6729897e-12)
(0.019146718 1.0019562e-08 9.2176152e-12)
(0.019146715 1.7023443e-08 -7.0518531e-12)
(0.019146713 -1.0725655e-08 7.8957151e-12)
(0.019146718 -1.7582641e-08 -8.5600944e-12)
(0.020140579 1.0589578e-08 8.9245753e-12)
(0.020140582 1.7958403e-08 -6.3313397e-12)
(0.020140581 -1.1276799e-08 7.0082302e-12)
(0.020140579 -1.8484951e-08 -8.1095774e-12)
(0.021450049 1.0478699e-08 8.3697295e-12)
(0.021450057 1.8102624e-08 -5.5519674e-12)
(0.021450055 -1.1126891e-08 6.1922365e-12)
(0.021450049 -1.8582115e-08 -7.424874e-12)
(0.023055263 9.8948859e-09 7.6145743e-12)
(0.023055274 1.7723349e-08 -4.7673122e-12)
(0.023055272 -1.0490623e-08 5.4166897e-12)
(0.023055264 -1.8144535e-08 -6.6094871e-12)
(0.024946801 9.0285865e-09 6.590878e-12)
(0.024946814 1.7063669e-08 -4.0246225e-12)
(0.024946811 -9.5628526e-09 4.5936221e-12)
(0.024946802 -1.7417822e-08 -5.7568072e-12)
(0.027122309 8.0447646e-09 5.56903e-12)
(0.027122322 1.6328721e-08 -3.3410324e-12)
(0.027122319 -8.5092708e-09 3.8010943e-12)
(0.027122311 -1.6608949e-08 -4.8901008e-12)
(0.029583257 7.0726888e-09 4.6220724e-12)
(0.02958327 1.5677811e-08 -2.7302044e-12)
(0.029583266 -7.4593425e-09 3.0999989e-12)
(0.029583259 -1.5878711e-08 -4.0743645e-12)
(0.032332729 6.1979953e-09 3.7735042e-12)
(0.032332741 1.5217732e-08 -2.1986004e-12)
(0.032332736 -6.4999551e-09 2.4957232e-12)
(0.032332731 -1.533527e-08 -3.3367885e-12)
(0.035374336 5.4620071e-09 3.0362209e-12)
(0.035374347 1.5001234e-08 -1.7440372e-12)
(0.035374341 -5.6739984e-09 1.9853703e-12)
(0.035374338 -1.503278e-08 -2.690004e-12)
(0.038711914 4.8672706e-09 2.4108203e-12)
(0.038711924 1.5032625e-08 -1.3655977e-12)
(0.038711917 -4.985698e-09 1.5614378e-12)
(0.038711916 -1.4976971e-08 -2.1372338e-12)
(0.042349603 4.3878247e-09 1.8909543e-12)
(0.042349612 1.5278723e-08 -1.0559882e-12)
(0.042349604 -4.4108743e-09 1.2143233e-12)
(0.042349605 -1.5136097e-08 -1.675358e-12)
(0.046292045 3.9809982e-09 1.4659046e-12)
(0.046292054 1.5681901e-08 -8.0663178e-13)
(0.046292045 -3.9086778e-09 9.3388034e-13)
(0.046292047 -1.5453952e-08 -1.2969032e-12)
(0.050544541 3.5980704e-09 1.1236825e-12)
(0.05054455 1.6172348e-08 -6.0873308e-13)
(0.050544541 -3.4321598e-09 7.100811e-13)
(0.050544544 -1.5862085e-08 -9.9200653e-13)
(0.055113122 3.1923966e-09 8.5167682e-13)
(0.055113132 1.6677847e-08 -4.5375039e-13)
(0.055113122 -2.9363208e-09 5.3353433e-13)
(0.055113126 -1.6289525e-08 -7.5002372e-13)
(0.060004522 2.7247016e-09 6.3813735e-13)
(0.060004533 1.7130541e-08 -3.3388393e-13)
(0.060004523 -2.383344e-09 3.9589567e-13)
(0.060004526 -1.6669511e-08 -5.6055682e-13)
(0.065226077 2.1658896e-09 4.7264302e-13)
(0.06522609 1.747094e-08 -2.4228448e-13)
(0.065226079 -1.7453687e-09 2.8970616e-13)
(0.065226082 -1.694348e-08 -4.1411033e-13)
(0.070785579 1.4979771e-09 3.4601085e-13)
(0.070785594 1.7649778e-08 -1.7315122e-13)
(0.070785582 -1.0054099e-09 2.0881118e-13)
(0.070785586 -1.7062907e-08 -3.023556e-13)
(0.076691098 7.1378407e-10 2.5008748e-13)
(0.076691116 1.7628378e-08 -1.2165833e-13)
(0.076691103 -1.5705164e-10 1.4794706e-13)
(0.076691106 -1.6989667e-08 -2.1808384e-13)
(0.082950793 -1.841239e-10 1.7823687e-13)
(0.082950813 1.73781e-08 -8.3810221e-14)
(0.0829508 7.965998e-10 1.0281124e-13)
(0.082950803 -1.6695496e-08 -1.5528601e-13)
(0.089572723 -1.1848354e-09 1.2505627e-13)
(0.089572746 1.6879319e-08 -5.602596e-14)
(0.089572732 1.8443105e-09 6.9880186e-14)
(0.089572735 -1.6160974e-08 -1.0898406e-13)
(0.096564666 -2.2706104e-09 8.6149327e-14)
(0.096564692 1.6120227e-08 -3.6163956e-14)
(0.096564677 2.9682154e-09 4.6169511e-14)
(0.09656468 -1.5374351e-08 -7.5225447e-14)
(0.10393395 -3.418387e-09 5.8036347e-14)
(0.10393398 1.5095646e-08 -2.2287053e-14)
(0.10393396 4.14529e-09 2.9360252e-14)
(0.10393397 -1.4330375e-08 -5.0892812e-14)
(0.1116873 -4.6011626e-09 3.8003005e-14)
(0.11168733 1.3805979e-08 -1.2753833e-14)
(0.11168732 5.3487026e-09 1.7667741e-14)
(0.11168732 -1.3029264e-08 -3.3573728e-14)
(0.11983069 -5.7892231e-09 2.3947595e-14)
(0.11983073 1.2256381e-08 -6.3825994e-15)
(0.11983071 6.5490319e-09 9.7184443e-15)
(0.11983071 -1.1475872e-08 -2.142024e-14)
(0.12836923 -6.9512317e-09 1.4260175e-14)
(0.12836927 1.0456129e-08 -2.2685882e-15)
(0.12836925 7.7153407e-09 4.4679954e-15)
(0.12836926 -9.6790719e-09 -1.3041884e-14)
(0.13730705 -8.0551967e-09 7.727714e-15)
(0.13730708 8.4182124e-09 2.6437778e-16)
(0.13730707 8.8161262e-09 1.1353178e-15)
(0.13730707 -7.6513681e-09 -7.4010285e-15)
(0.14664717 -9.0693426e-09 3.4456178e-15)
(0.14664721 6.1591203e-09 1.7126074e-15)
(0.14664719 9.8201772e-09 -8.6170043e-16)
(0.1466472 -5.408695e-09 -3.7089849e-15)
(0.15639147 -9.9629234e-09 7.4303979e-16)
(0.15639151 3.698812e-09 2.4314214e-15)
(0.15639149 1.0697373e-08 -1.946644e-15)
(0.1563915 -2.9703949e-09 -1.371532e-15)
(0.16654056 -1.0707009e-08 -8.705072e-16)
(0.16654061 1.0608178e-09 2.6786809e-15)
(0.16654059 1.1419459e-08 -2.4273123e-15)
(0.1665406 -3.5933296e-10 3.7294536e-17)
(0.17709376 -1.1275283e-08 -1.7484028e-15)
(0.17709381 -1.7275555e-09 2.6344788e-15)
(0.17709379 1.1960829e-08 -2.5233976e-15)
(0.1770938 2.3978856e-09 8.2007344e-16)
(0.18804899 -1.1644861e-08 -2.1400351e-15)
(0.18804904 -4.6349403e-09 2.4194169e-15)
(0.18804902 1.2299336e-08 -2.3879666e-15)
(0.18804903 5.270619e-09 1.191889e-15)
(0.19940276 -1.1797175e-08 -2.2231152e-15)
(0.19940281 -7.6255746e-09 2.1181827e-15)
(0.19940279 1.2417156e-08 -2.1247205e-15)
(0.19940281 8.2238437e-09 1.3012815e-15)
(0.21115011 -1.1718896e-08 -2.1171976e-15)
(0.21115016 -1.0658932e-08 1.7842582e-15)
(0.21115014 1.230171e-08 -1.8082062e-15)
(0.21115016 1.1217772e-08 1.2545789e-15)
(0.22328459 -1.1402929e-08 -1.9095632e-15)
(0.22328464 -1.3689314e-08 1.4539566e-15)
(0.22328462 1.1946637e-08 -1.4819719e-15)
(0.22328464 1.4207431e-08 1.1208368e-15)
(0.23579823 -1.0849451e-08 -1.6561893e-15)
(0.23579828 -1.6665413e-08 1.1474681e-15)
(0.23579826 1.1352825e-08 -1.1709997e-15)
(0.23579828 1.7142213e-08 9.4743208e-16)
(0.24868154 -1.0066969e-08 -1.394818e-15)
(0.24868159 -1.9529838e-08 8.7689474e-16)
(0.24868157 1.052946e-08 -8.8805335e-16)
(0.24868159 1.9965394e-08 7.637461e-16)
(0.26192349 -9.0733609e-09 -1.1448588e-15)
(0.26192353 -2.2218622e-08 6.4611476e-16)
(0.26192351 9.49505e-09 -6.4593399e-16)
(0.26192354 2.2613624e-08 5.8896758e-16)
(0.27551153 -7.8968212e-09 -9.1915674e-16)
(0.27551157 -2.4660762e-08 4.5155198e-16)
(0.27551155 8.2783636e-09 -4.479952e-16)
(0.27551158 2.5016455e-08 4.3741254e-16)
(0.28943161 -6.5765745e-09 -7.217291e-16)
(0.28943165 -2.6777889e-08 2.9781138e-16)
(0.28943163 6.9191312e-09 -2.9129082e-16)
(0.28943166 2.7096003e-08 3.074171e-16)
(0.30366822 -5.1631723e-09 -5.5075022e-16)
(0.30366825 -2.8484307e-08 1.7796344e-16)
(0.30366823 5.4683285e-09 -1.7380228e-16)
(0.30366826 2.876697e-08 2.0108656e-16)
(0.31820439 -3.7180629e-09 -4.0380128e-16)
(0.31820443 -2.9687793e-08 8.4282614e-17)
(0.3182044 3.9877325e-09 -9.0459401e-17)
(0.31820444 2.993743e-08 1.1922395e-16)
(0.33302182 -2.3120147e-09 -2.9270816e-16)
(0.33302185 -3.0291781e-08 1.8647604e-17)
(0.33302182 2.5483288e-09 -3.0015369e-17)
(0.33302186 3.0510994e-08 5.8360585e-17)
(0.34810085 -1.0218619e-09 -2.0763572e-16)
(0.34810088 -3.0199793e-08 -2.895065e-17)
(0.34810085 1.2270498e-09 1.5244274e-17)
(0.34810088 3.0391229e-08 1.158559e-17)
(0.36342061 7.5000154e-11 -1.4008481e-16)
(0.36342063 -2.9323224e-08 -5.7022098e-17)
(0.3634206 1.0125831e-10 3.8961182e-17)
(0.36342063 2.9489425e-08 -2.2382796e-17)
(0.37895905 9.0881944e-10 -8.0831825e-17)
(0.37895907 -2.7593678e-08 -7.6474289e-17)
(0.37895904 -7.5951931e-10 5.260267e-17)
(0.37895907 2.7736922e-08 -5.2832229e-17)
(0.39469308 1.4284077e-09 -3.261085e-17)
(0.3946931 -2.4981027e-08 -8.4714861e-17)
(0.39469306 -1.3044367e-09 6.1650398e-17)
(0.3946931 2.5103184e-08 -8.5021358e-17)
(0.41059865 1.6139081e-09 9.0785831e-18)
(0.41059866 -2.1516865e-08 -8.6990852e-17)
(0.41059862 -1.5140531e-09 6.7977766e-17)
(0.41059866 2.1619295e-08 -1.1122642e-16)
(0.42665084 1.4887786e-09 4.6151705e-17)
(0.42665085 -1.731826e-08 -8.5674502e-17)
(0.42665081 -1.4122694e-09 7.0174664e-17)
(0.42665084 1.7401827e-08 -1.3404834e-16)
(0.44282402 1.1266829e-09 7.4290761e-17)
(0.44282402 -1.2606087e-08 -8.872298e-17)
(0.44282398 -1.0729782e-09 7.2951025e-17)
(0.44282401 1.2671394e-08 -1.4830641e-16)
(0.45909193 6.5088491e-10 9.0045466e-17)
(0.45909193 -7.7525503e-09 -9.1934068e-17)
(0.4590919 -6.1885618e-10 6.4849058e-17)
(0.45909192 7.8003769e-09 -1.3992687e-16)
(0.47542786 2.3032748e-10 5.6037478e-17)
(0.47542785 -3.4394514e-09 -7.455487e-17)
(0.47542783 -2.1956503e-10 4.1659051e-17)
(0.47542785 3.4724125e-09 -9.2295475e-17)
(0.49180473 2.1689233e-11 -3.932422e-17)
(0.49180473 -7.9607277e-10 -2.1657885e-17)
(0.49180472 -1.954436e-11 -4.4759782e-18)
(0.49180473 8.0784966e-10 1.3025369e-17)
(0.034882673 7.4272069e-10 1.4273534e-09)
(0.034882667 9.1514459e-10 1.8905957e-10)
(0.034882665 -8.6121441e-10 7.4978752e-11)
(0.034882671 -1.046128e-09 1.7283124e-10)
(0.030699608 9.9708161e-10 1.1932479e-09)
(0.030699613 1.8402026e-09 2.5998709e-10)
(0.030699609 -1.2872031e-09 1.1515696e-10)
(0.030699605 -2.2053126e-09 2.4388152e-10)
(0.024980248 8.2563747e-10 8.3808203e-10)
(0.024980252 2.8537169e-09 2.4424882e-10)
(0.024980247 -1.0792512e-09 1.2620949e-10)
(0.024980246 -3.2501144e-09 2.2837936e-10)
(0.021296461 8.8756398e-10 6.6267798e-10)
(0.021296465 4.0743309e-09 2.2652543e-10)
(0.021296459 -1.2214854e-09 1.3677222e-10)
(0.02129646 -4.4653036e-09 2.1388707e-10)
(0.019359584 1.5636037e-09 5.6711645e-10)
(0.019359579 5.8318389e-09 2.1537798e-10)
(0.019359574 -2.067171e-09 1.4334926e-10)
(0.019359583 -6.239139e-09 2.0600958e-10)
(0.01847875 3.6674798e-09 4.8552211e-10)
(0.018478736 8.7971068e-09 2.0037555e-10)
(0.018478731 -4.285809e-09 1.4273294e-10)
(0.018478749 -9.2204278e-09 1.9408398e-10)
(0.01825141 6.4028119e-09 4.0629136e-10)
(0.018251395 1.2323491e-08 1.7927735e-10)
(0.018251392 -7.0828706e-09 1.3515709e-10)
(0.018251409 -1.2752794e-08 1.7586406e-10)
(0.018500974 8.7132128e-09 3.3136519e-10)
(0.018500964 1.5310304e-08 1.5479524e-10)
(0.018500961 -9.4015474e-09 1.2272512e-10)
(0.018500973 -1.5728985e-08 1.5345034e-10)
(0.019146716 1.0148338e-08 2.6451379e-10)
(0.019146713 1.7251604e-08 1.2998687e-10)
(0.019146711 -1.0803028e-08 1.0777137e-10)
(0.019146716 -1.7640885e-08 1.2977164e-10)
(0.020140577 1.07231e-08 2.0764468e-10)
(0.020140581 1.8171124e-08 1.0683544e-10)
(0.020140579 -1.1316293e-08 9.2105647e-11)
(0.020140577 -1.8516032e-08 1.0717571e-10)
(0.021450047 1.0620751e-08 1.6071562e-10)
(0.021450055 1.8303249e-08 8.6314599e-11)
(0.021450053 -1.1135418e-08 7.6928558e-11)
(0.021450048 -1.8593726e-08 8.6942032e-11)
(0.023055262 1.0046979e-08 1.2276271e-10)
(0.023055273 1.7913711e-08 6.8755396e-11)
(0.023055271 -1.0472892e-08 6.2950201e-11)
(0.023055263 -1.8142744e-08 6.9513955e-11)
(0.024946799 9.1916631e-09 9.2743946e-11)
(0.024946813 1.7244415e-08 5.4129962e-11)
(0.02494681 -9.5217052e-09 5.0620261e-11)
(0.024946801 -1.740661e-08 5.4803534e-11)
(0.027122308 8.2175648e-09 6.9516836e-11)
(0.027122322 1.6500097e-08 4.2189046e-11)
(0.027122318 -8.4474255e-09 4.0146469e-11)
(0.02712231 -1.6591604e-08 4.2615101e-11)
(0.029583256 7.2519796e-09 5.1795355e-11)
(0.029583269 1.5840055e-08 3.2575369e-11)
(0.029583265 -7.3803951e-09 3.1502313e-11)
(0.029583258 -1.5857933e-08 3.2823793e-11)
(0.032332728 6.3805363e-09 3.8424109e-11)
(0.03233274 1.5371126e-08 2.4933809e-11)
(0.032332735 -6.4078164e-09 2.4508716e-11)
(0.03233273 -1.531283e-08 2.5101721e-11)
(0.035374335 5.6447672e-09 2.8425498e-11)
(0.035374346 1.5146111e-08 1.8951182e-11)
(0.03537434 -5.5723003e-09 1.8939085e-11)
(0.035374337 -1.5009854e-08 1.9091822e-11)
(0.038711913 5.0474659e-09 2.099978e-11)
(0.038711923 1.5169433e-08 1.4347744e-11)
(0.038711916 -4.8776461e-09 1.4559324e-11)
(0.038711915 -1.4954249e-08 1.4460075e-11)
(0.042349602 4.5629987e-09 1.5509197e-11)
(0.042349611 1.5407964e-08 1.0832232e-11)
(0.042349604 -4.2992084e-09 1.1147977e-11)
(0.042349604 -1.5113876e-08 1.0917537e-11)
(0.046292044 4.1490765e-09 1.145877e-11)
(0.046292053 1.5803997e-08 8.1602574e-12)
(0.046292044 -3.7956875e-09 8.5097489e-12)
(0.046292046 -1.5432241e-08 8.222816e-12)
(0.05054454 3.7573854e-09 8.473258e-12)
(0.050544549 1.6287636e-08 6.1367299e-12)
(0.05054454 -3.3197272e-09 6.4802866e-12)
(0.050544543 -1.5840706e-08 6.1807541e-12)
(0.055113121 3.341691e-09 6.2721767e-12)
(0.055113131 1.67866e-08 4.6082658e-12)
(0.055113121 -2.8259705e-09 4.925381e-12)
(0.055113125 -1.6268201e-08 4.6376475e-12)
(0.060004521 2.8631089e-09 4.6479869e-12)
(0.060004532 1.7232981e-08 3.4560903e-12)
(0.060004521 -2.2762929e-09 3.7376658e-12)
(0.060004525 -1.6647926e-08 3.4741897e-12)
(0.065226075 2.2928972e-09 3.4483665e-12)
(0.065226089 1.7567252e-08 2.5890271e-12)
(0.065226077 -1.6425691e-09 2.8327096e-12)
(0.065226081 -1.6921312e-08 2.5985193e-12)
(0.070785578 1.6133868e-09 2.5608639e-12)
(0.070785593 1.774012e-08 1.9376118e-12)
(0.070785581 -9.0759012e-10 2.1444779e-12)
(0.070785584 -1.703985e-08 1.9408516e-12)
(0.076691097 8.1766424e-10 1.9035821e-12)
(0.076691115 1.7712888e-08 1.4490766e-12)
(0.076691102 -6.4743253e-11 1.6215446e-12)
(0.076691105 -1.6965448e-08 1.4474077e-12)
(0.082950792 -9.1481488e-11 1.4162242e-12)
(0.082950812 1.7456906e-08 1.0831168e-12)
(0.082950799 8.830318e-10 1.2248198e-12)
(0.082950802 -1.6669877e-08 1.0780159e-12)
(0.089572722 -1.10297e-09 1.0543628e-12)
(0.089572745 1.6952531e-08 8.0724743e-13)
(0.089572731 1.924623e-09 9.2384257e-13)
(0.089572734 -1.6133759e-08 8.0170957e-13)
(0.096564665 -2.1989393e-09 7.8530928e-13)
(0.096564691 1.6187932e-08 5.997341e-13)
(0.096564676 3.0422545e-09 6.9601192e-13)
(0.096564679 -1.5345378e-08 5.9541603e-13)
(0.10393395 -3.3562365e-09 5.8510621e-13)
(0.10393398 1.5157929e-08 4.4458501e-13)
(0.10393396 4.2129763e-09 5.2382468e-13)
(0.10393397 -1.4299511e-08 4.4160292e-13)
(0.1116873 -4.5477937e-09 4.3606712e-13)
(0.11168733 1.3862939e-08 3.2862974e-13)
(0.11168732 5.4100248e-09 3.9381235e-13)
(0.11168732 -1.2996402e-08 3.2713071e-13)
(0.11983069 -5.7438541e-09 3.2507715e-13)
(0.11983073 1.2308116e-08 2.4244079e-13)
(0.11983071 6.6040332e-09 2.9576843e-13)
(0.11983071 -1.1440935e-08 2.4203941e-13)
(0.12836923 -6.913057e-09 2.4238782e-13)
(0.12836927 1.0502726e-08 1.7861953e-13)
(0.12836925 7.7641075e-09 2.2192121e-13)
(0.12836926 -9.6420109e-09 1.7879115e-13)
(0.13730704 -8.0234009e-09 1.8076109e-13)
(0.13730708 8.4597467e-09 1.314748e-13)
(0.13730707 8.8587795e-09 1.6635634e-13)
(0.13730707 -7.6121601e-09 1.3176719e-13)
(0.14664717 -9.043111e-09 1.3482221e-13)
(0.14664721 6.1956589e-09 9.6707297e-14)
(0.14664719 9.8568658e-09 1.2458487e-13)
(0.1466472 -5.3673437e-09 9.6922851e-14)
(0.15639147 -9.9414503e-09 1.0057155e-13)
(0.15639151 3.7304143e-09 7.1106553e-14)
(0.15639149 1.0728268e-08 9.3212441e-14)
(0.1563915 -2.9269326e-09 7.1218548e-14)
(0.16654056 -1.0689505e-08 7.5027372e-14)
(0.16654061 1.0875371e-09 5.2280829e-14)
(0.16654059 1.144475e-08 6.9664461e-14)
(0.1665406 -3.1382135e-10 5.2308625e-14)
(0.17709376 -1.1260978e-08 5.5967147e-14)
(0.17709381 -1.7056692e-09 3.8448141e-14)
(0.17709379 1.1980719e-08 5.2004421e-14)
(0.1770938 2.4453556e-09 3.8422464e-14)
(0.18804899 -1.1633015e-08 4.173826e-14)
(0.18804904 -4.6178373e-09 2.8294184e-14)
(0.18804902 1.2314042e-08 3.8768032e-14)
(0.18804903 5.3199252e-09 2.8230506e-14)
(0.19940276 -1.1787077e-08 3.1111725e-14)
(0.19940281 -7.6132015e-09 2.0845304e-14)
(0.19940279 1.2426909e-08 2.8854092e-14)
(0.19940281 8.2748299e-09 2.0757891e-14)
(0.21115011 -1.1709872e-08 2.3170771e-14)
(0.21115016 -1.0651227e-08 1.5383155e-14)
(0.21115014 1.2306752e-08 2.1437985e-14)
(0.21115016 1.1270247e-08 1.5280706e-14)
(0.22328459 -1.1394351e-08 1.7233109e-14)
(0.22328464 -1.3686201e-08 1.1381851e-14)
(0.22328462 1.1947225e-08 1.5894688e-14)
(0.22328464 1.4261166e-08 1.1266893e-14)
(0.23579823 -1.084074e-08 1.2795638e-14)
(0.23579828 -1.6666795e-08 8.4504661e-15)
(0.23579826 1.1349233e-08 1.1756808e-14)
(0.23579828 1.719694e-08 8.3220799e-15)
(0.24868154 -1.0057604e-08 9.4787461e-15)
(0.24868159 -1.9535588e-08 6.2991423e-15)
(0.24868157 1.0521979e-08 8.671287e-15)
(0.24868159 2.00208e-08 6.1632068e-15)
(0.26192349 -9.062891e-09 7.0044774e-15)
(0.26192353 -2.222858e-08 4.7181042e-15)
(0.26192351 9.4839994e-09 6.3750822e-15)
(0.26192354 2.2669352e-08 4.5760536e-15)
(0.27551153 -7.884876e-09 5.1556061e-15)
(0.27551157 -2.4674721e-08 3.5546925e-15)
(0.27551155 8.2640946e-09 4.6686724e-15)
(0.27551158 2.5072097e-08 3.4147911e-15)
(0.28943161 -6.5628785e-09 3.7788421e-15)
(0.28943165 -2.6795586e-08 2.6974533e-15)
(0.28943163 6.9020356e-09 3.4071549e-15)
(0.28943166 2.7151096e-08 2.5559902e-15)
(0.30366822 -5.1475625e-09 2.7576601e-15)
(0.30366825 -2.8505415e-08 2.0572384e-15)
(0.30366823 5.4488489e-09 2.4750414e-15)
(0.30366826 2.8820991e-08 1.9258658e-15)
(0.31820439 -3.7005069e-09 2.0008807e-15)
(0.31820443 -2.9711911e-08 1.5768508e-15)
(0.31820441 3.9663673e-09 1.7930985e-15)
(0.31820444 2.9989788e-08 1.4557715e-15)
(0.33302182 -2.2926313e-09 1.445246e-15)
(0.33302185 -3.0318422e-08 1.2125986e-15)
(0.33302183 2.52564e-09 1.2952307e-15)
(0.33302186 3.0561023e-08 1.1075054e-15)
(0.34810085 -1.0009395e-09 1.0370035e-15)
(0.34810088 -3.0228378e-08 9.3939417e-16)
(0.34810085 1.2037225e-09 9.3658117e-16)
(0.34810089 3.0438187e-08 8.4556139e-16)
(0.36342061 9.6990835e-11 7.3764784e-16)
(0.36342063 -2.9353077e-08 7.3481197e-16)
(0.3634206 7.8174332e-11 6.8146751e-16)
(0.36342064 2.9532488e-08 6.4855727e-16)
(0.37895905 9.3122745e-10 5.2114339e-16)
(0.37895907 -2.7624052e-08 5.8314967e-16)
(0.37895904 -7.8177474e-10 4.9287087e-16)
(0.37895907 2.7775172e-08 5.0090832e-16)
(0.39469309 1.4504285e-09 3.6452772e-16)
(0.3946931 -2.5011129e-08 4.6773612e-16)
(0.39469307 -1.3252482e-09 3.5413281e-16)
(0.3946931 2.5135648e-08 3.9716583e-16)
(0.41059865 1.6346503e-09 2.4956847e-16)
(0.41059866 -2.1545916e-08 3.840348e-16)
(0.41059863 -1.5324554e-09 2.4696021e-16)
(0.41059866 2.1645019e-08 3.2023925e-16)
(0.42665084 1.5073707e-09 1.6133326e-16)
(0.42665085 -1.7345621e-08 3.2115793e-16)
(0.42665081 -1.4274467e-09 1.5427863e-16)
(0.42665084 1.7419978e-08 2.6893672e-16)
(0.44282402 1.1423812e-09 9.1762646e-17)
(0.44282402 -1.2631498e-08 2.6931113e-16)
(0.44282398 -1.0841458e-09 7.587925e-17)
(0.44282401 1.2681506e-08 2.3147067e-16)
(0.45909193 6.6321822e-10 4.0001965e-17)
(0.45909193 -7.7766087e-09 2.1593492e-16)
(0.4590919 -6.2541915e-10 1.9352179e-17)
(0.45909192 7.8025981e-09 1.8971169e-16)
(0.47542786 2.3919822e-10 1.9563221e-17)
(0.47542785 -3.4662908e-09 1.4813559e-16)
(0.47542783 -2.1877862e-10 -3.2259433e-18)
(0.47542785 3.4695943e-09 1.2764892e-16)
(0.49180473 2.5072519e-11 4.7810832e-17)
(0.49180473 -8.0815882e-10 5.6518863e-17)
(0.49180472 -1.8266439e-11 1.6397193e-17)
(0.49180473 8.0494097e-10 2.1020529e-17)
)
;

boundaryField
{
    movingWall
    {
        type            fixedValue;
        value           uniform (0.5 0 0);
    }
    CPLReceiveMD
    {
        type            fixedValue;
        value           uniform (0.030520268 0 0);
    }
    streamwiseIn
    {
        type            cyclic;
    }
    streamwiseOut
    {
        type            cyclic;
    }
    front
    {
        type            cyclic;
    }
    back
    {
        type            cyclic;
    }
    procBoundary1to0
    {
        type            processor;
        value           nonuniform List<vector> 
240
(
(0.034882673 7.3077086e-10 -1.4273534e-09)
(0.034882667 9.2045676e-10 -1.8905957e-10)
(0.034882665 -8.6668966e-10 -7.4978752e-11)
(0.034882671 -1.0425764e-09 -1.7283124e-10)
(0.030699608 9.6430903e-10 -1.1932479e-09)
(0.030699613 1.8488161e-09 -2.5998709e-10)
(0.030699609 -1.2969486e-09 -1.1515696e-10)
(0.030699605 -2.1968102e-09 -2.4388152e-10)
(0.024980248 7.8284357e-10 -8.3808203e-10)
(0.024980252 2.8627515e-09 -2.4424882e-10)
(0.024980247 -1.0814494e-09 -1.2620949e-10)
(0.024980246 -3.2352836e-09 -2.2837936e-10)
(0.021296461 8.5015683e-10 -6.6267798e-10)
(0.021296465 4.0829223e-09 -2.2652543e-10)
(0.021296459 -1.2155487e-09 -1.3677222e-10)
(0.02129646 -4.4473216e-09 -2.1388707e-10)
(0.019359584 1.5361576e-09 -5.6711645e-10)
(0.019359579 5.8372701e-09 -2.1537798e-10)
(0.019359574 -2.0581965e-09 -1.4334926e-10)
(0.019359583 -6.2238165e-09 -2.0600958e-10)
(0.01847875 3.6503884e-09 -4.8552211e-10)
(0.018478736 8.7995157e-09 -2.0037555e-10)
(0.018478731 -4.2769062e-09 -1.4273294e-10)
(0.018478749 -9.208299e-09 -1.9408398e-10)
(0.01825141 6.3939386e-09 -4.0629136e-10)
(0.018251395 1.2323423e-08 -1.7927735e-10)
(0.018251392 -7.0735896e-09 -1.3515709e-10)
(0.018251409 -1.2744895e-08 -1.7586406e-10)
(0.018500974 8.7101803e-09 -3.3136519e-10)
(0.018500964 1.5308223e-08 -1.5479524e-10)
(0.018500961 -9.392176e-09 -1.2272512e-10)
(0.018500973 -1.572559e-08 -1.5345034e-10)
(0.019146716 1.0149385e-08 -2.6451379e-10)
(0.019146713 1.7247917e-08 -1.2998687e-10)
(0.019146711 -1.0794172e-08 -1.0777137e-10)
(0.019146716 -1.7641156e-08 -1.2977164e-10)
(0.020140577 1.0726731e-08 -2.0764468e-10)
(0.020140581 1.8166275e-08 -1.0683544e-10)
(0.020140579 -1.1308359e-08 -9.2105647e-11)
(0.020140577 -1.8519104e-08 -1.0717571e-10)
(0.021450047 1.0626098e-08 -1.6071562e-10)
(0.021450055 1.8297746e-08 -8.6314599e-11)
(0.021450053 -1.112835e-08 -7.6928558e-11)
(0.021450048 -1.8598737e-08 -8.6942032e-11)
(0.023055262 1.0054097e-08 -1.2276271e-10)
(0.023055273 1.7908053e-08 -6.8755396e-11)
(0.023055271 -1.0466108e-08 -6.2950201e-11)
(0.023055263 -1.8148798e-08 -6.9513955e-11)
(0.024946799 9.1997841e-09 -9.2743946e-11)
(0.024946813 1.7238959e-08 -5.4129962e-11)
(0.02494681 -9.5150612e-09 -5.0620261e-11)
(0.024946801 -1.7413124e-08 -5.4803534e-11)
(0.027122308 8.2253531e-09 -6.9516836e-11)
(0.027122322 1.6495046e-08 -4.2189046e-11)
(0.027122318 -8.4413905e-09 -4.0146469e-11)
(0.02712231 -1.6598128e-08 -4.2615101e-11)
(0.029583256 7.2590709e-09 -5.1795355e-11)
(0.029583269 1.5835546e-08 -3.2575369e-11)
(0.029583265 -7.3751751e-09 -3.1502313e-11)
(0.029583258 -1.5864032e-08 -3.2823793e-11)
(0.032332728 6.3867968e-09 -3.8424109e-11)
(0.03233274 1.5367209e-08 -2.4933809e-11)
(0.032332735 -6.4033862e-09 -2.4508716e-11)
(0.03233273 -1.5318301e-08 -2.5101721e-11)
(0.035374335 5.6501478e-09 -2.8425498e-11)
(0.035374346 1.5142792e-08 -1.8951182e-11)
(0.03537434 -5.568599e-09 -1.8939085e-11)
(0.035374337 -1.5014611e-08 -1.9091822e-11)
(0.038711913 5.0519906e-09 -2.099978e-11)
(0.038711923 1.5166687e-08 -1.4347744e-11)
(0.038711916 -4.8745963e-09 -1.4559324e-11)
(0.038711915 -1.4958279e-08 -1.4460075e-11)
(0.042349602 4.5667344e-09 -1.5509197e-11)
(0.042349611 1.5405734e-08 -1.0832232e-11)
(0.042349604 -4.2967274e-09 -1.1147977e-11)
(0.042349604 -1.5117216e-08 -1.0917537e-11)
(0.046292044 4.152112e-09 -1.145877e-11)
(0.046292053 1.5802212e-08 -8.1602573e-12)
(0.046292044 -3.793694e-09 -8.5097489e-12)
(0.046292046 -1.5434957e-08 -8.222816e-12)
(0.05054454 3.7598169e-09 -8.473258e-12)
(0.050544549 1.6286228e-08 -6.1367299e-12)
(0.05054454 -3.318144e-09 -6.4802866e-12)
(0.050544543 -1.584288e-08 -6.1807541e-12)
(0.055113121 3.3436143e-09 -6.2721767e-12)
(0.055113131 1.6785505e-08 -4.6082658e-12)
(0.055113121 -2.8247275e-09 -4.925381e-12)
(0.055113125 -1.6269916e-08 -4.6376475e-12)
(0.060004521 2.864611e-09 -4.6479869e-12)
(0.060004532 1.7232138e-08 -3.4560903e-12)
(0.060004521 -2.2753278e-09 -3.7376658e-12)
(0.060004525 -1.6649261e-08 -3.4741897e-12)
(0.065226075 2.2940554e-09 -3.4483665e-12)
(0.065226089 1.7566612e-08 -2.5890271e-12)
(0.065226077 -1.6418283e-09 -2.8327096e-12)
(0.065226081 -1.6922337e-08 -2.5985193e-12)
(0.070785578 1.6142695e-09 -2.5608639e-12)
(0.070785593 1.773964e-08 -1.9376118e-12)
(0.070785581 -9.0702862e-10 -2.1444779e-12)
(0.070785584 -1.7040628e-08 -1.9408516e-12)
(0.076691097 8.1832988e-10 -1.9035821e-12)
(0.076691115 1.7712532e-08 -1.4490766e-12)
(0.076691102 -6.432325e-11 -1.6215446e-12)
(0.076691105 -1.6966031e-08 -1.4474077e-12)
(0.082950792 -9.0985281e-11 -1.4162242e-12)
(0.082950812 1.7456645e-08 -1.0831168e-12)
(0.082950799 8.8334122e-10 -1.2248198e-12)
(0.082950802 -1.6670309e-08 -1.0780159e-12)
(0.089572722 -1.1026045e-09 -1.0543628e-12)
(0.089572745 1.6952342e-08 -8.0724743e-13)
(0.089572731 1.9248476e-09 -9.2384257e-13)
(0.089572734 -1.6134077e-08 -8.0170957e-13)
(0.096564665 -2.1986732e-09 -7.8530928e-13)
(0.096564691 1.6187798e-08 -5.997341e-13)
(0.096564676 3.0424152e-09 -6.9601192e-13)
(0.096564679 -1.5345608e-08 -5.9541603e-13)
(0.10393395 -3.3560453e-09 -5.8510621e-13)
(0.10393398 1.5157836e-08 -4.4458501e-13)
(0.10393396 4.2130894e-09 -5.2382468e-13)
(0.10393397 -1.4299676e-08 -4.4160292e-13)
(0.1116873 -4.5476583e-09 -4.3606712e-13)
(0.11168733 1.3862876e-08 -3.2862974e-13)
(0.11168732 5.4101028e-09 -3.9381235e-13)
(0.11168732 -1.2996519e-08 -3.2713071e-13)
(0.11983069 -5.7437597e-09 -3.2507715e-13)
(0.11983073 1.2308074e-08 -2.4244079e-13)
(0.11983071 6.6040856e-09 -2.9576843e-13)
(0.11983071 -1.1441016e-08 -2.4203941e-13)
(0.12836923 -6.9129926e-09 -2.4238782e-13)
(0.12836927 1.05027e-08 -1.7861953e-13)
(0.12836925 7.7641416e-09 -2.2192121e-13)
(0.12836926 -9.6420665e-09 -1.7879115e-13)
(0.13730704 -8.0233579e-09 -1.8076109e-13)
(0.13730708 8.4597309e-09 -1.314748e-13)
(0.13730707 8.8588008e-09 -1.6635634e-13)
(0.13730707 -7.6121971e-09 -1.3176719e-13)
(0.14664717 -9.0430833e-09 -1.3482221e-13)
(0.14664721 6.1956504e-09 -9.6707297e-14)
(0.14664719 9.8568781e-09 -1.2458487e-13)
(0.1466472 -5.3673676e-09 -9.6922851e-14)
(0.15639147 -9.9414332e-09 -1.0057155e-13)
(0.15639151 3.7304105e-09 -7.1106553e-14)
(0.15639149 1.0728274e-08 -9.3212441e-14)
(0.1563915 -2.9269475e-09 -7.1218548e-14)
(0.16654056 -1.0689495e-08 -7.5027372e-14)
(0.16654061 1.0875363e-09 -5.2280829e-14)
(0.16654059 1.1444752e-08 -6.9664461e-14)
(0.1665406 -3.1383007e-10 -5.2308625e-14)
(0.17709376 -1.1260973e-08 -5.5967147e-14)
(0.17709381 -1.7056681e-09 -3.8448141e-14)
(0.17709379 1.1980719e-08 -5.2004421e-14)
(0.1770938 2.445351e-09 -3.8422464e-14)
(0.18804899 -1.1633013e-08 -4.173826e-14)
(0.18804904 -4.6178352e-09 -2.8294184e-14)
(0.18804902 1.2314041e-08 -3.8768032e-14)
(0.18804903 5.3199233e-09 -2.8230506e-14)
(0.19940276 -1.1787077e-08 -3.1111725e-14)
(0.19940281 -7.613199e-09 -2.0845304e-14)
(0.19940279 1.2426907e-08 -2.8854092e-14)
(0.19940281 8.2748297e-09 -2.0757891e-14)
(0.21115011 -1.1709874e-08 -2.3170771e-14)
(0.21115016 -1.0651224e-08 -1.5383155e-14)
(0.21115014 1.230675e-08 -2.1437985e-14)
(0.21115016 1.1270247e-08 -1.5280706e-14)
(0.22328459 -1.1394353e-08 -1.7233109e-14)
(0.22328464 -1.3686198e-08 -1.1381851e-14)
(0.22328462 1.1947223e-08 -1.5894688e-14)
(0.22328464 1.4261167e-08 -1.1266893e-14)
(0.23579823 -1.0840742e-08 -1.2795638e-14)
(0.23579828 -1.6666792e-08 -8.4504661e-15)
(0.23579826 1.134923e-08 -1.1756808e-14)
(0.23579828 1.7196941e-08 -8.3220799e-15)
(0.24868154 -1.0057606e-08 -9.4787461e-15)
(0.24868159 -1.9535586e-08 -6.2991423e-15)
(0.24868157 1.0521977e-08 -8.6712871e-15)
(0.24868159 2.0020801e-08 -6.1632068e-15)
(0.26192349 -9.062893e-09 -7.0044775e-15)
(0.26192353 -2.2228579e-08 -4.7181042e-15)
(0.26192351 9.4839977e-09 -6.3750822e-15)
(0.26192354 2.2669353e-08 -4.5760536e-15)
(0.27551153 -7.8848777e-09 -5.1556061e-15)
(0.27551157 -2.4674719e-08 -3.5546926e-15)
(0.27551155 8.2640932e-09 -4.6686725e-15)
(0.27551158 2.5072098e-08 -3.4147912e-15)
(0.28943161 -6.5628801e-09 -3.7788421e-15)
(0.28943165 -2.6795584e-08 -2.6974533e-15)
(0.28943163 6.9020346e-09 -3.407155e-15)
(0.28943166 2.7151097e-08 -2.5559903e-15)
(0.30366822 -5.1475638e-09 -2.7576601e-15)
(0.30366825 -2.8505414e-08 -2.0572384e-15)
(0.30366823 5.4488482e-09 -2.4750415e-15)
(0.30366826 2.8820991e-08 -1.9258659e-15)
(0.31820439 -3.700508e-09 -2.0008807e-15)
(0.31820443 -2.971191e-08 -1.5768508e-15)
(0.31820441 3.9663667e-09 -1.7930986e-15)
(0.31820444 2.9989788e-08 -1.4557716e-15)