/*--------------------------------*- C++ -*----------------------------------*\
| =========                 |                                                 |
| \\      /  F ield         | OpenFOAM: The Open Source CFD Toolbox           |
|  \\    /   O peration     | Version:  3.0.1                                 |
|   \\  /    A nd           | Web:      www.OpenFOAM.org                      |
|    \\/     M anipulation  |                                                 |
\*---------------------------------------------------------------------------*/
FoamFile
{
    version     2.0;
    format      ascii;
    class       surfaceScalarField;
    location    "375";
    object      phi;
}
// * * * * * * * * * * * * * * * * * * * * * * * * * * * * * * * * * * * * * //

dimensions      [0 3 -1 0 0 0 0];

internalField   nonuniform List<scalar> 
1072
(
-0.22756623
-9.5692505e-09
-6.4664966e-09
-0.22756675
3.6540121e-07
1.0804363e-08
-0.22756618
-5.9796794e-07
-1.6736337e-08
-3.9412976e-07
-1.7591239e-08
-0.17709808
1.8850735e-07
-2.5605745e-08
-0.17709825
6.3685386e-07
-8.8208112e-09
-0.17709813
-6.5108915e-07
-4.3114434e-09
-7.7277487e-07
-1.3437251e-08
-0.12018182
9.877619e-07
-3.1647434e-08
-0.12018278
1.5112304e-06
-2.5852735e-08
-0.12018167
-1.4310956e-06
3.0750504e-09
-1.6069035e-06
-6.9570534e-09
-0.061396653
1.4960205e-06
-2.8784147e-08
-0.061397154
1.9430048e-06
-3.0810008e-08
-0.061396629
-1.9681628e-06
1.3929654e-09
-2.1212501e-06
-1.0351798e-08
-0.0069525902
2.3068868e-06
-2.0215896e-08
-0.0069532622
2.5911647e-06
-2.9186661e-08
-0.0069525233
-2.7808922e-06
-5.3052542e-10
-2.8389924e-06
-1.423212e-08
0.039590834
3.1792627e-06
-1.2390935e-08
0.039590062
3.3601717e-06
-2.532683e-08
0.039590841
-3.623823e-06
-9.2134972e-10
-3.6460017e-06
-1.6276409e-08
0.077265325
3.9007217e-06
-6.8951645e-09
0.077264628
4.0590913e-06
-2.1403858e-08
0.077265267
-4.2957855e-06
-1.3384941e-10
-4.3523079e-06
-1.5576528e-08
0.10725867
4.3222591e-06
-3.4521008e-09
0.10725821
4.517661e-06
-1.806337e-08
0.10725857
-4.6602309e-06
1.1872141e-09
-4.7959312e-06
-1.3623284e-08
0.13190736
4.4049956e-06
-1.317791e-09
0.13190722
4.660843e-06
-1.4711524e-08
0.13190725
-4.6877006e-06
2.4790624e-09
-4.9123006e-06
-1.1327868e-08
0.15377899
4.2028635e-06
6.6793546e-11
0.15377915
4.515488e-06
-1.2036402e-08
0.15377889
-4.4360977e-06
3.2439736e-09
-4.7348873e-06
-9.2728064e-09
0.1751251
3.812918e-06
9.9211838e-10
0.17512546
4.1657607e-06
-9.5174806e-09
0.17512501
-4.0031734e-06
3.4978324e-09
-4.35234e-06
-7.6774244e-09
0.19767315
3.3334992e-06
1.5839907e-09
0.19767363
3.7093721e-06
-7.1709829e-09
0.19767309
-3.4862901e-06
3.4014393e-09
-3.864347e-06
-6.5186715e-09
0.22263076
2.8419491e-06
1.8914806e-09
0.22263126
3.2293355e-06
-5.08814e-09
0.22263071
-2.9614196e-06
3.1357122e-09
-3.354444e-06
-5.6706593e-09
0.25078596
2.3884168e-06
1.9501967e-09
0.25078642
2.7830094e-06
-3.3728149e-09
0.25078592
-2.4776104e-06
2.8365896e-09
-2.8798986e-06
-4.9997686e-09
0.28262933
1.9987871e-06
1.7886681e-09
0.28262973
2.4022467e-06
-1.8991948e-09
0.2826293
-2.0600779e-06
2.579414e-09
-2.472504e-06
-4.4085853e-09
0.31846197
1.6809967e-06
1.4870695e-09
0.31846229
2.0991911e-06
-7.9195259e-10
0.31846194
-1.7164822e-06
2.3935093e-09
-2.1442933e-06
-3.8192557e-09
0.35847754
1.4315696e-06
1.1089471e-09
0.35847778
1.8726192e-06
1.0957165e-11
0.3584775
-1.4432778e-06
2.2791908e-09
-1.8939879e-06
-3.2628307e-09
0.40281876
1.240896e-06
6.8356069e-10
0.40281892
1.7136441e-06
5.6581706e-10
0.40281871
-1.2308361e-06
2.2232038e-09
-1.712718e-06
-2.7244294e-09
0.45161319
1.0969211e-06
2.5084439e-10
0.45161329
1.6098998e-06
9.3687663e-10
0.45161314
-1.0670661e-06
2.2085429e-09
-1.5882099e-06
-2.2116337e-09
0.50499369
9.8748855e-07
-1.6032175e-10
0.50499375
1.5482865e-06
1.1693614e-09
0.50499363
-9.3971831e-07
2.2200201e-09
-1.5074484e-06
-1.7401036e-09
0.56310841
9.0164505e-07
-5.3124696e-10
0.56310844
1.5165947e-06
1.3104162e-09
0.56310835
-8.3768925e-07
2.246209e-09
-1.4582415e-06
-1.3223465e-09
0.62612409
8.3023007e-07
-8.5205144e-10
0.6261241
1.5042362e-06
1.3962834e-09
0.62612402
-7.5163245e-07
2.27932e-09
-1.429983e-06
-9.6847456e-10
0.69422529
7.6601633e-07
-1.1208357e-09
0.69422528
1.5025034e-06
1.4499169e-09
0.69422522
-6.7412465e-07
2.3144594e-09
-1.4138992e-06
-6.8200717e-10
0.7676115
7.0359056e-07
-1.3369187e-09
0.76761149
1.5044982e-06
1.4870519e-09
0.76761143
-5.9957318e-07
2.3486706e-09
-1.4029883e-06
-4.6010183e-10
0.8464933
6.3911858e-07
-1.5049847e-09
0.84649328
1.5049044e-06
1.5191084e-09
0.84649322
-5.2399373e-07
2.379155e-09
-1.39181e-06
-2.962218e-10
0.93108816
5.7007301e-07
-1.6313961e-09
0.93108815
1.4996992e-06
1.5532587e-09
0.93108808
-4.4474688e-07
2.4057104e-09
-1.3762139e-06
-1.8190701e-10
1.0216165
4.9497451e-07
-1.7231869e-09
1.0216165
1.4858736e-06
1.5936406e-09
1.0216164
-3.6027726e-07
2.4268626e-09
-1.3530699e-06
-1.0805741e-10
1.1182978
4.1316916e-07
-1.7872142e-09
1.1182978
1.4611886e-06
1.6422762e-09
1.1182977
-2.6988509e-07
2.4411405e-09
-1.320033e-06
-6.574444e-11
1.2213473
3.2464834e-07
-1.829543e-09
1.2213474
1.4239823e-06
1.6997457e-09
1.2213473
-1.735381e-07
2.4471594e-09
-1.2753532e-06
-4.7458745e-11
1.3309727
2.299083e-07
-1.8551034e-09
1.3309727
1.3730254e-06
1.7656821e-09
1.3309726
-7.1722855e-08
2.4436724e-09
-1.217733e-06
-4.6893084e-11
1.4473711
1.2984246e-07
-1.8676143e-09
1.4473711
1.3074222e-06
1.8391388e-09
1.447371
3.4669714e-08
2.4296843e-09
-1.1462265e-06
-5.9202481e-11
1.5707265
2.5658228e-08
-1.869634e-09
1.5707265
1.2265467e-06
1.9189007e-09
1.5707264
1.4443232e-07
2.4044941e-09
-1.0601742e-06
-8.0930448e-11
1.701207
-8.1189247e-08
-1.8627473e-09
1.7012071
1.1300083e-06
2.00359e-09
1.7012069
2.5611023e-07
2.3677096e-09
-9.5916497e-07
-1.0977054e-10
1.8389624
-1.8905313e-07
-1.8478216e-09
1.8389625
1.0176369e-06
2.0918928e-09
1.8389624
3.6805786e-07
2.3192166e-09
-8.4301924e-07
-1.4427053e-10
1.984122
-2.9614457e-07
-1.8252786e-09
1.9841222
8.8948432e-07
2.1826688e-09
1.984122
4.7848791e-07
2.2591347e-09
-7.1178722e-07
-1.8353607e-10
2.1367921
-4.0058032e-07
-1.795331e-09
2.1367923
7.4583555e-07
2.2749742e-09
2.1367922
5.8551775e-07
2.1877618e-09
-5.6575856e-07
-2.2697287e-10
2.2970541
-5.0043076e-07
-1.7581816e-09
2.2970542
5.8722745e-07
2.3680811e-09
2.2970541
6.8721597e-07
2.1055171e-09
-4.0547934e-07
-2.7413245e-10
2.4649624
-5.9376907e-07
-1.7141301e-09
2.4649625
4.1447234e-07
2.4614395e-09
2.4649624
7.8165039e-07
2.012878e-09
-2.3177387e-07
-3.2457089e-10
2.6405427
-6.7872251e-07
-1.6636226e-09
2.6405428
2.286851e-07
2.5546613e-09
2.6405427
8.6693956e-07
1.9103741e-09
-4.5770325e-08
-3.7781195e-10
2.8237903
-7.5352605e-07
-1.607236e-09
2.8237905
3.1312844e-08
2.6474829e-09
2.8237904
9.4130738e-07
1.7985634e-09
1.5107127e-07
-4.333506e-10
3.0146688
-8.1657805e-07
-1.5456236e-09
3.014669
-1.7583306e-07
2.7397296e-09
3.0146689
1.0031404e-06
1.6780399e-09
3.5692886e-07
-4.9068189e-10
3.2131085
-8.6649722e-07
-1.4795148e-09
3.2131087
-3.9054207e-07
2.8312918e-09
3.2131086
1.0510465e-06
1.5494523e-09
5.6958612e-07
-5.4935379e-10
3.4190057
-9.0217897e-07
-1.4096174e-09
3.4190059
-6.101652e-07
2.9221198e-09
3.4190059
1.0839149e-06
1.4135062e-09
7.8639436e-07
-6.0903192e-10
3.6322219
-9.2285054e-07
-1.3365599e-09
3.6322221
-8.3157077e-07
3.0122322e-09
3.6322221
1.1009726e-06
1.2710207e-09
1.0042299e-06
-6.6957434e-10
3.8525832
-9.2812216e-07
-1.2608344e-09
3.8525834
-1.0510931e-06
3.1017246e-09
3.8525834
1.1018368e-06
1.1229895e-09
1.2194433e-06
-7.3104869e-10
4.0798801
-9.1803054e-07
-1.182884e-09
4.0798803
-1.2644725e-06
3.1908043e-09
4.0798803
1.086558e-06
9.7065064e-10
1.4277974e-06
-7.9377024e-10
4.3138675
-8.9307285e-07
-1.1029897e-09
4.3138677
-1.4667858e-06
3.2798399e-09
4.3138677
1.0556494e-06
8.1557675e-10
1.6243937e-06
-8.5829597e-10
4.5542653
-8.5422333e-07
-1.0215317e-09
4.5542655
-1.6523679e-06
3.3693267e-09
4.5542655
1.0100972e-06
6.5970232e-10
1.8035862e-06
-9.2535665e-10
4.8007591
-8.029268e-07
-9.3918053e-10
4.8007592
-1.8147268e-06
3.45987e-09
4.8007593
9.5134217e-07
5.0541368e-10
1.9588836e-06
-9.9570366e-10
5.0530008
-7.4105983e-07
-8.5724281e-10
5.0530009
-1.9464607e-06
3.5520241e-09
5.053001
8.8122479e-07
3.5545598e-10
2.0828504e-06
-1.0698399e-09
5.3106104
-6.7084871e-07
-7.7809658e-10
5.3106105
-2.0391911e-06
3.6459172e-09
5.3106106
8.0188327e-07
2.1277332e-10
2.1670196e-06
-1.1476112e-09
5.5731774
-5.947329e-07
-7.0561269e-10
5.5731774
-2.0835415e-06
3.7404737e-09
5.5731775
7.1559458e-07
8.0154074e-11
2.2018533e-06
-1.2276494e-09
5.8402625
-5.1516401e-07
-6.4535509e-10
5.8402625
-2.069214e-06
3.8319583e-09
5.8402626
6.2455404e-07
-4.0325147e-11
2.1768114e-06
-1.3066638e-09
6.1114003
-4.3433736e-07
-6.0421416e-10
6.1114002
-1.9852664e-06
3.9114718e-09
6.1114003
5.3060081e-07
-1.4796164e-10
2.0806472e-06
-1.3785399e-09
6.3861012
-3.5387377e-07
-5.8901623e-10
6.386101
-1.8207979e-06
3.9609062e-09
6.3861011
4.3492662e-07
-2.4360269e-10
1.9021677e-06
-1.4329554e-09
6.6638543
-2.7452693e-07
-6.0369093e-10
6.663854
-1.5665067e-06
3.9467671e-09
6.6638541
3.3787563e-07
-3.2755442e-10
1.6319606e-06
-1.4525545e-09
6.9441305
-1.9614622e-07
-6.4516649e-10
6.9441302
-1.2182329e-06
3.8113381e-09
6.9441303
2.391142e-07
-3.914179e-10
1.2662458e-06
-1.4069926e-09
7.2263853
-1.1844522e-07
-7.0094725e-10
7.2263849
-7.8510006e-07
3.4656757e-09
7.226385
1.3882654e-07
-3.9828448e-10
8.154508e-07
-1.245441e-09
7.5100621
-4.5050253e-08
-7.5317296e-10
7.5100616
-3.1873851e-07
2.8158885e-09
7.5100617
4.2931552e-08
-2.8040419e-10
3.3373155e-07
-9.2959065e-10
7.7945955
-7.2977237e-10
7.7945951
1.5164805e-09
7.7945952
1.4839208e-10
-3.2697627e-10
-0.22756623
3.1217735e-07
-0.22756679
1.8609534e-07
-0.22756619
-4.3044005e-07
-2.8161303e-07
-0.17709845
5.0268424e-07
-0.17709862
4.6837892e-07
-0.17709853
-5.6079115e-07
-6.9219576e-07
-0.1201818
1.3540019e-06
-0.12018275
1.5028699e-06
-0.12018169
-1.4564238e-06
-1.6449986e-06
-0.061396799
1.797147e-06
-0.061397283
2.0033552e-06
-0.061396794
-1.9774736e-06
-2.159929e-06
-0.0069525787
2.5199278e-06
-0.006953232
2.6651994e-06
-0.0069525283
-2.757005e-06
-2.84565e-06
0.039590788
3.3161182e-06
0.039590036
3.4277317e-06
0.039590781
-3.5772177e-06
-3.6258987e-06
0.077265192
3.9844695e-06
0.077264519
4.1185248e-06
0.077265123
-4.2428832e-06
-4.3200241e-06
0.10725847
4.3731788e-06
0.10725804
4.5726834e-06
0.10725836
-4.6130347e-06
-4.7641705e-06
0.13190713
4.436603e-06
0.13190703
4.7149507e-06
0.13190702
-4.6513663e-06
-4.8874522e-06
0.15377878
4.2226119e-06
0.15377896
4.5685339e-06
0.15377867
-4.4109578e-06
-4.7178397e-06
0.17512492
3.8243808e-06
0.17512531
4.216155e-06
0.17512484
-3.9871679e-06
-4.3410032e-06
0.19767301
3.3383546e-06
0.19767351
3.7551559e-06
0.19767295
-3.4767362e-06
-3.8558903e-06
0.22263066
2.8412412e-06
0.22263118
3.2689976e-06
0.22263061
-2.9559493e-06
-3.346614e-06
0.25078588
2.3831509e-06
0.25078636
2.8156034e-06
0.25078585
-2.4744871e-06
-2.8714801e-06
0.28262927
1.9900624e-06
0.28262969
2.4279184e-06
0.28262924
-2.0581657e-06
-2.4632371e-06
0.31846193
1.6699998e-06
0.31846226
2.1185931e-06
0.3184619
-1.7150995e-06
-2.1344399e-06
0.3584775
1.4194496e-06
0.35847774
1.8867096e-06
0.35847746
-1.4420465e-06
-1.8842377e-06
0.40281872
1.2286204e-06
0.40281889
1.7234831e-06
0.40281868
-1.2295609e-06
-1.7038153e-06
0.45161315
1.0852142e-06
0.45161326
1.6165393e-06
0.4516131
-1.0656558e-06
-1.5807387e-06
0.50499365
9.7681179e-07
0.50499371
1.5526679e-06
0.50499359
-9.3814294e-07
-1.5017478e-06
0.56310838
8.9221642e-07
0.5631084
1.5194912e-06
0.56310831
-8.3595817e-07
-1.4543984e-06
0.62612406
8.2206928e-07
0.62612406
1.5062684e-06
0.62612398
-7.497829e-07
-1.427875e-06
0.69422525
7.5899957e-07
0.69422524
1.5041419e-06
0.69422518
-6.7221391e-07
-1.4132597e-06
0.76761146
6.9751291e-07
0.76761145
1.5060788e-06
0.76761138
-5.9767117e-07
-1.4034775e-06
0.84649325
6.3374596e-07
0.84649324
1.5066429e-06
0.84649317
-5.2217721e-07
-1.3930692e-06
0.93108812
5.6518274e-07
0.93108811
1.5017144e-06
0.93108804
-4.4309013e-07
-1.3779065e-06
1.0216165
4.9038205e-07
1.0216165
1.4882089e-06
1.0216164
-3.5884668e-07
-1.3549077e-06
1.1182978
4.0874137e-07
1.1182978
1.4638329e-06
1.1182977
-2.6873588e-07
-1.3217878e-06
1.2213473
3.2030562e-07
1.2213473
1.4268868e-06
1.2213472
-1.7271306e-07
-1.2768582e-06
1.3309727
2.2561877e-07
1.3309727
1.3761185e-06
1.3309726
-7.1253222e-08
-1.2188759e-06
1.447371
1.256114e-07
1.4473711
1.3106202e-06
1.447371
3.4762154e-08
-1.1469387e-06
1.5707264
2.151582e-08
1.5707265
1.2297625e-06
1.5707264
1.4413232e-07
-1.0604188e-06
1.7012069
-8.5199552e-08
1.701207
1.1331562e-06
1.7012069
2.5540619e-07
-9.5892549e-07
1.8389624
-1.9288443e-07
1.8389625
1.020636e-06
1.8389624
3.6693931e-07
-8.4229069e-07
1.984122
-2.9975332e-07
1.9841221
8.922601e-07
1.984122
4.7694377e-07
-7.1056998e-07
2.1367921
-4.0393058e-07
2.1367922
7.4831971e-07
2.1367921
5.8353551e-07
-5.6405476e-07
2.2970541
-5.0349548e-07
2.2970542
5.8935779e-07
2.2970541
6.8478144e-07
-4.0329138e-07
2.4649624
-5.9652931e-07
2.4649625
4.1619217e-07
2.4649624
7.7874882e-07
-2.2910513e-07
2.6405427
-6.8116555e-07
2.6405428
2.2994268e-07
2.6405427
8.6355689e-07
-4.2626558e-08
2.8237903
-7.5564273e-07
2.8237905
3.2061223e-08
2.8237904
9.3743182e-07
1.546799e-07
3.0146688
-8.1835995e-07
3.014669
-1.7563557e-07
3.0146689
9.9876412e-07
3.609859e-07
3.2131085
-8.6793431e-07
3.2131087
-3.9093099e-07
3.2131086
1.0461676e-06
5.7406722e-07
3.4190057
-9.0325795e-07
3.4190059
-6.1116842e-07
3.4190059
1.0785387e-06
7.9126599e-07
3.632222
-9.2355425e-07
3.6322222
-8.332067e-07
3.6322221
1.0951139e-06
1.0094487e-06
3.8525832
-9.2842998e-07
3.8525834
-1.0533688e-06
3.8525834
1.0955213e-06
1.2249559e-06
4.0798801
-9.1792172e-07
4.0798803
-1.2673821e-06
4.0798803
1.079824e-06
1.4335409e-06
4.3138675
-8.925302e-07
4.3138677
-1.4703096e-06
4.3138677
1.0485502e-06
1.6302975e-06
4.5542654
-8.5323979e-07
4.5542655
-1.6564722e-06
4.5542656
1.002702e-06
1.8095738e-06
4.8007591
-8.0151458e-07
4.8007593
-1.8193663e-06
4.8007593
9.4373653e-07
1.9648777e-06
5.0530009
-7.3926204e-07
5.053001
-1.9515833e-06
5.053001
8.7350956e-07
2.0887793e-06
5.3106105
-6.6875247e-07
5.3106106
-2.0447471e-06
5.3106106
7.9416973e-07
2.1728271e-06
5.5731774
-5.9248116e-07
5.5731775
-2.0894986e-06
5.5731776
7.0799627e-07
2.207511e-06
5.8402626
-5.1296042e-07
5.8402626
-2.0755815e-06
5.8402626
6.1717648e-07
2.1823322e-06
6.1114004
-4.3243507e-07
6.1114002
-1.9921321e-06
6.1114003
5.2353702e-07
2.0860981e-06
6.3861012
-3.5253715e-07
6.386101
-1.8283825e-06
6.3861011
4.2828042e-07
1.9076781e-06
6.6638544
-2.7395966e-07
6.6638541
-1.5752419e-06
6.6638542
3.3186724e-07
1.6377309e-06
6.9441306
-1.9640364e-07
6.9441302
-1.2288827e-06
6.9441303
2.3437882e-07
1.2725853e-06
7.2263854
-1.1940492e-07
7.2263849
-7.9890775e-07
7.226385
1.3707688e-07
8.2291621e-07
7.5100621
-4.6642365e-08
7.5100616
-3.3691847e-07
7.5100617
4.7599156e-08
3.4317008e-07
7.7945955
7.7945951
7.7945952
)
;

boundaryField
{
    movingWall
    {
        type            calculated;
        value           uniform 0;
    }
    CPLReceiveMD
    {
        type            calculated;
        value           uniform 0;
    }
    streamwiseIn
    {
        type            cyclic;
        value           nonuniform List<scalar> 
120
(
0.22756566
0.17709799
0.12018071
0.06139612
0.0069518442
-0.039591614
-0.077265958
-0.10725901
-0.13190737
-0.15377872
-0.17512464
-0.1976726
-0.22263021
-0.25078545
-0.28262889
-0.31846162
-0.35847726
-0.40281854
-0.45161303
-0.50499357
-0.56310832
-0.62612402
-0.69422522
-0.76761144
-0.84649323
-0.93108809
-1.0216164
-1.1182977
-1.2213472
-1.3309726
-1.447371
-1.5707264
-1.7012069
-1.8389623
-1.9841219
-2.136792
-2.297054
-2.4649623
-2.6405426
-2.8237902
-3.0146687
-3.2131084
-3.4190057
-3.6322219
-3.8525832
-4.0798801
-4.3138675
-4.5542654
-4.8007591
-5.0530009
-5.3106105
-5.5731775
-5.8402626
-6.1114004
-6.3861013
-6.6638544
-6.9441306
-7.2263854
-7.5100622
-7.7945956
0.22756565
0.17709836
0.12018071
0.061396273
0.0069518325
-0.039591574
-0.077265834
-0.10725882
-0.13190716
-0.15377852
-0.17512447
-0.19767248
-0.22263012
-0.25078539
-0.28262885
-0.31846158
-0.35847723
-0.40281851
-0.451613
-0.50499353
-0.56310828
-0.62612398
-0.69422518
-0.7676114
-0.84649318
-0.93108804
-1.0216164
-1.1182977
-1.2213472
-1.3309726
-1.4473709
-1.5707263
-1.7012068
-1.8389623
-1.9841219
-2.136792
-2.297054
-2.4649623
-2.6405426
-2.8237902
-3.0146687
-3.2131084
-3.4190057
-3.6322219
-3.8525832
-4.0798801
-4.3138675
-4.5542654
-4.8007592
-5.0530009
-5.3106106
-5.5731775
-5.8402627
-6.1114004
-6.3861013
-6.6638545
-6.9441307
-7.2263855
-7.5100622
-7.7945956
)
;
    }
    streamwiseOut
    {
        type            cyclic;
        value           nonuniform List<scalar> 
120
(
-0.22756566
-0.17709799
-0.12018071
-0.06139612
-0.0069518442
0.039591614
0.077265958
0.10725901
0.13190737
0.15377872
0.17512464
0.1976726
0.22263021
0.25078545
0.28262889
0.31846162
0.35847726
0.40281854
0.45161303
0.50499357
0.56310832
0.62612402
0.69422522
0.76761144
0.84649323
0.93108809
1.0216164
1.1182977
1.2213472
1.3309726
1.447371
1.5707264
1.7012069
1.8389623
1.9841219
2.136792
2.297054
2.4649623
2.6405426
2.8237902
3.0146687
3.2131084
3.4190057
3.6322219
3.8525832
4.0798801
4.3138675
4.5542654
4.8007591
5.0530009
5.3106105
5.5731775
5.8402626
6.1114004
6.3861013
6.6638544
6.9441306
7.2263854
7.5100622
7.7945956
-0.22756565
-0.17709836
-0.12018071
-0.061396273
-0.0069518325
0.039591574
0.077265834
0.10725882
0.13190716
0.15377852
0.17512447
0.19767248
0.22263012
0.25078539
0.28262885
0.31846158
0.35847723
0.40281851
0.451613
0.50499353
0.56310828
0.62612398
0.69422518
0.7676114
0.84649318
0.93108804
1.0216164
1.1182977
1.2213472
1.3309726
1.4473709
1.5707263
1.7012068
1.8389623
1.9841219
2.136792
2.297054
2.4649623
2.6405426
2.8237902
3.0146687
3.2131084
3.4190057
3.6322219
3.8525832
4.0798801
4.3138675
4.5542654
4.8007592
5.0530009
5.3106106
5.5731775
5.8402627
6.1114004
6.3861013
6.6638545
6.9441307
7.2263855
7.5100622
7.7945956
)
;
    }
    front
    {
        type            cyclic;
        value           nonuniform 0();
    }
    back
    {
        type            cyclic;
        value           nonuniform 0();
    }
    procBoundary0to1
    {
        type            processor;
        value           nonuniform List<scalar> 
240
(
-2.0034005e-08
-9.6458341e-10
-8.9520377e-11
2.9557027e-08
-2.7263093e-08
6.3692363e-09
-1.8133058e-08
1.4861372e-08
-1.7833803e-08
1.6538321e-08
-2.5799421e-08
6.5219848e-10
-1.7612524e-08
1.7806599e-08
-2.2212597e-08
-6.4406575e-10
-1.8585061e-08
1.5320771e-08
-1.7390241e-08
1.1065015e-09
-1.8271587e-08
1.2218281e-08
-1.3972402e-08
3.6170064e-09
-1.6553095e-08
9.8083896e-09
-1.2085686e-08
4.2469301e-09
-1.4131439e-08
7.9261238e-09
-1.1062575e-08
3.9981664e-09
-1.1669518e-08
6.8706153e-09
-9.8900095e-09
3.477291e-09
-9.5319711e-09
5.9065412e-09
-8.8585506e-09
3.0710968e-09
-7.8089054e-09
4.8042981e-09
-7.7087038e-09
2.899565e-09
-6.4409395e-09
3.6042909e-09
-6.5238451e-09
2.9090471e-09
-5.3187348e-09
2.3721875e-09
-5.4243013e-09
2.9833844e-09
-4.347551e-09
1.4003644e-09
-4.4935532e-09
3.0174717e-09
-3.4649474e-09
5.0895842e-10
-3.7630322e-09
2.943493e-09
-2.6482879e-09
-2.0333089e-10
-3.2265574e-09
2.7109333e-09
-1.8893684e-09
-7.2703647e-10
-2.8559645e-09
2.4643681e-09
-1.1956696e-09
-1.0811643e-09
-2.6139693e-09
2.1432365e-09
-5.7584091e-10
-1.3150041e-09
-2.4659291e-09
1.7879662e-09
-3.6026717e-11
-1.4461731e-09
-2.3831881e-09
1.4298458e-09
4.2167019e-10
-1.510558e-09
-2.3440461e-09
1.0946424e-09
7.9931822e-10
-1.5410819e-09
-2.3329365e-09
7.9870086e-10
1.1024447e-09
-1.5547991e-09
-2.3390884e-09
5.5179666e-10
1.3390792e-09
-1.5653664e-09
-2.355137e-09
3.5960385e-10
1.5183361e-09
-1.5778397e-09
-2.3759115e-09
2.184304e-10
1.6497987e-09
-1.5973696e-09
-2.3974422e-09
1.2175215e-10
1.7427768e-09
-1.6267044e-09
-2.4165762e-09
6.1779332e-11
1.8057047e-09
-1.6669142e-09
-2.4306961e-09
3.0653918e-11
1.8457177e-09
-1.7179203e-09
-2.4376176e-09
2.1257996e-11
1.8684596e-09
-1.7788914e-09
-2.4355525e-09
2.7703346e-11
1.8781049e-09
-1.8485451e-09
-2.4231538e-09
4.5493375e-11
1.8774804e-09
-1.9253809e-09
-2.3995052e-09
7.1450168e-11
1.8683082e-09
-2.0078628e-09
-2.3640957e-09
1.0349786e-10
1.8515099e-09
-2.0945468e-09
-2.3167571e-09
1.4037988e-10
1.8275012e-09
-2.184163e-09
-2.2575966e-09
1.8136878e-10
1.7966061e-09
-2.2756629e-09
-2.1869253e-09
2.2601128e-10
1.7588712e-09
-2.3682327e-09
-2.1050412e-09
2.7386233e-10
1.7143959e-09
-2.4612877e-09
-2.012664e-09
3.2473585e-10
1.6635884e-09
-2.5543455e-09
-1.9103435e-09
3.7823536e-10
1.6069939e-09
-2.6470876e-09
-1.798658e-09
4.3390603e-10
1.5452671e-09
-2.739312e-09
-1.6782155e-09
4.9128226e-10
1.479111e-09
-2.8308885e-09
-1.5496661e-09
5.499431e-10
1.4092123e-09
-2.9217524e-09
-1.4137286e-09
6.0958334e-10
1.3361822e-09
-3.011908e-09
-1.2712325e-09
6.7006558e-10
1.260338e-09
-3.1014484e-09
-1.1231794e-09
7.3146978e-10
1.1824757e-09
-3.1905556e-09
-9.7081334e-10
7.9411961e-10
1.1026647e-09
-3.2796447e-09
-8.1577924e-10
8.5857757e-10
1.0212809e-09
-3.3691779e-09
-6.5986025e-10
9.2557732e-10
9.389927e-10
-3.4597603e-09
-5.0553297e-10
9.9587176e-10
8.5710703e-10
-3.551946e-09
-3.5554329e-10
1.0699641e-09
7.7800237e-10
-3.6458639e-09
-2.1283488e-10
1.1476998e-09
7.0555068e-10
-3.7404393e-09
-8.0195463e-11
1.2277099e-09
6.4531746e-10
-3.8319373e-09
4.0299068e-11
1.3067017e-09
6.0419438e-10
-3.9114604e-09
1.4794687e-10
1.3785599e-09
5.8900905e-10
-3.9609018e-09
2.4359606e-10
1.4329629e-09
6.0369256e-10
-3.9467674e-09
3.2755351e-10
1.4525532e-09
6.4517309e-10
-3.8113415e-09
3.9142068e-10
1.4069853e-09
7.0095724e-10
-3.4656808e-09
3.9828946e-10
1.2454297e-09
7.5318525e-10
-2.8158941e-09
2.8041045e-10
9.2957981e-10
7.2978429e-10
-1.516484e-09
-1.4838606e-10
3.269679e-10
)
;
    }
    procBoundary0to1throughfront
    {
        type            processorCyclic;
        value           nonuniform List<scalar> 
240
(
-6.8911912e-09
-2.5628206e-08
-3.0002488e-08
-2.5910992e-08
-1.6861204e-08
-9.1738922e-09
-4.1327687e-09
-1.2572938e-09
3.2459938e-10
1.2329295e-09
1.782058e-09
2.0946788e-09
2.2077409e-09
2.1407391e-09
1.9178616e-09
1.5814914e-09
1.1705657e-09
7.2760081e-10
2.8668342e-10
-1.2742173e-10
-4.9876219e-10
-8.1902418e-10
-1.0859541e-09
-1.3016026e-09
-1.4705953e-09
-1.5990856e-09
-1.6938092e-09
-1.7613045e-09
-1.8073383e-09
-1.8365946e-09
-1.8526065e-09
-1.8578057e-09
-1.8537025e-09
-1.8411374e-09
-1.8205349e-09
-1.792285e-09
-1.7565257e-09
-1.7134652e-09
-1.6636192e-09
-1.6076326e-09
-1.5462479e-09
-1.4802423e-09
-1.4103626e-09
-1.3372663e-09
-1.2613092e-09
-1.1833122e-09
-1.10336e-09
-1.0218411e-09
-9.39431e-10
-8.574397e-10
-7.7824682e-10
-7.0572373e-10
-6.4543403e-10
-6.0426773e-10
-5.8905024e-10
-6.0370902e-10
-6.4517284e-10
-7.0094523e-10
-7.5316506e-10
-7.2976183e-10
2.0115338e-08
3.4230744e-10
-1.8381285e-08
-2.4821016e-08
-2.4648563e-08
-2.2072108e-08
-1.9202006e-08
-1.663448e-08
-1.3921506e-08
-1.1671077e-08
-9.3655975e-09
-7.1740175e-09
-5.2062754e-09
-3.4934513e-09
-2.0531057e-09
-9.4255054e-10
-1.2818522e-10
4.4188178e-10
8.2467029e-10
1.0853471e-09
1.2376183e-09
1.33099e-09
1.3916986e-09
1.4380673e-09
1.4782268e-09
1.5194635e-09
1.5660128e-09
1.6199785e-09
1.6820119e-09
1.7518112e-09
1.828493e-09
1.9108712e-09
1.9976671e-09
2.0876542e-09
2.1797493e-09
2.2730641e-09
2.3669233e-09
2.4608605e-09
2.5544886e-09
2.6475714e-09
2.7399717e-09
2.8316106e-09
2.9224624e-09
3.012561e-09
3.1020209e-09
3.1910387e-09
3.280039e-09
3.3694899e-09
3.4599997e-09
3.552124e-09
3.6459915e-09
3.7405261e-09
3.8319927e-09
3.9114925e-09
3.9609169e-09
3.9467707e-09
3.8113367e-09
3.4656708e-09
2.8158819e-09
1.5164742e-09
-9.4179161e-09
3.5648482e-09
1.0650488e-08
8.273959e-09
5.3214957e-09
3.8193679e-09
3.6582564e-09
3.8357267e-09
4.4174955e-09
4.5743304e-09
4.3821052e-09
3.968331e-09
3.4846228e-09
3.0417282e-09
2.693411e-09
2.452772e-09
2.3076164e-09
2.2361173e-09
2.215255e-09
2.2257301e-09
2.2534327e-09
2.2888927e-09
2.3262434e-09
2.3620402e-09
2.3942295e-09
2.4212924e-09
2.4419714e-09
2.455087e-09
2.459519e-09
2.4542403e-09
2.4384256e-09
2.4114952e-09
2.3731351e-09
2.3232739e-09
2.2620467e-09
2.1897475e-09
2.1066293e-09
2.0133579e-09
1.910421e-09
1.7983383e-09
1.6776653e-09
1.5490069e-09
1.4130448e-09
1.2705791e-09
1.1225891e-09
9.7030286e-10
8.1535178e-10
6.5951368e-10
5.0526017e-10
3.553346e-10
2.126801e-10
8.0084532e-11
-4.0375364e-11
-1.4799654e-10
-2.4362592e-10
-3.2756894e-10
-3.9142578e-10
-3.9828742e-10
-2.8040352e-10
1.4839526e-10
-5.5545383e-09
-4.039873e-11
4.8145501e-09
-1.2795718e-10
-5.8474311e-09
-9.9091356e-09
-1.0953125e-08
-1.0434108e-08
-9.2450903e-09
-7.9973849e-09
-6.9612571e-09
-6.1708426e-09
-5.5525795e-09
-5.0158251e-09
-4.4961577e-09
-3.9301043e-09
-3.3571666e-09
-2.8237883e-09
-2.313375e-09
-1.8405857e-09
-1.4192013e-09
-1.0576165e-09
-7.5969876e-10
-5.2710926e-10
-3.5338259e-10
-2.3008643e-10
-1.4813225e-10
-9.8775956e-11
-7.4276462e-11
-6.8282551e-11
-7.5928227e-11
-9.372135e-11
-1.1930539e-10
-1.511663e-10
-1.8833968e-10
-2.3015752e-10
-2.7597988e-10
-3.254549e-10
-3.7803911e-10
-4.33156e-10
-4.902404e-10
-5.4879173e-10
-6.0844309e-10
-6.6901079e-10
-7.3054069e-10
-7.9333242e-10
-8.5793235e-10
-9.2506427e-10
-9.9547579e-10
-1.0696678e-09
-1.1474856e-09
-1.2275612e-09
-1.3066051e-09
-1.3785021e-09
-1.4329336e-09
-1.4525446e-09
-1.4069911e-09
-1.2454455e-09
-9.2960225e-10
-3.2698962e-10
)
;
    }
}


// ************************************************************************* //
