/*--------------------------------*- C++ -*----------------------------------*\
| =========                 |                                                 |
| \\      /  F ield         | OpenFOAM: The Open Source CFD Toolbox           |
|  \\    /   O peration     | Version:  3.0.1                                 |
|   \\  /    A nd           | Web:      www.OpenFOAM.org                      |
|    \\/     M anipulation  |                                                 |
\*---------------------------------------------------------------------------*/
FoamFile
{
    version     2.0;
    format      ascii;
    class       volScalarField;
    location    "250";
    object      p;
}
// * * * * * * * * * * * * * * * * * * * * * * * * * * * * * * * * * * * * * //

dimensions      [0 2 -2 0 0 0 0];

internalField   nonuniform List<scalar> 
480
(
-3.137503e-08
-2.080072e-08
9.4254522e-08
1.0433469e-07
-2.4943931e-08
-2.2515949e-08
8.5423289e-08
1.0132579e-07
-2.2947744e-08
-2.5316641e-08
7.9212029e-08
9.655487e-08
-1.7502493e-08
-2.0836895e-08
6.7276496e-08
8.2585105e-08
-1.6925719e-08
-1.9423077e-08
5.9158145e-08
7.057065e-08
-1.925173e-08
-2.0171202e-08
5.2225358e-08
5.9303024e-08
-2.2091242e-08
-2.1533232e-08
4.4557382e-08
4.8059765e-08
-2.511317e-08
-2.3382297e-08
3.6478081e-08
3.727324e-08
-2.802459e-08
-2.5528974e-08
2.8388629e-08
2.7347401e-08
-3.0571351e-08
-2.7722614e-08
2.0681942e-08
1.856245e-08
-3.2611357e-08
-2.9754126e-08
1.3714821e-08
1.110509e-08
-3.4083219e-08
-3.1469311e-08
7.752263e-09
5.0669169e-09
-3.4978297e-08
-3.2769944e-08
2.9513187e-09
4.6073281e-10
-3.5323779e-08
-3.3610436e-08
-6.2922508e-10
-2.7665218e-09
-3.5169834e-08
-3.3988781e-08
-3.0076907e-09
-4.7142716e-09
-3.4579271e-08
-3.3934964e-08
-4.2568787e-09
-5.4993636e-09
-3.3620164e-08
-3.3499709e-08
-4.4840186e-09
-5.2562618e-09
-3.2360279e-08
-3.2744768e-08
-3.8143329e-09
-4.1246554e-09
-3.0863105e-08
-3.1735278e-08
-2.3784553e-09
-2.2389576e-09
-2.918532e-08
-3.0534217e-08
-3.036697e-10
2.7704316e-10
-2.7375365e-08
-2.9198736e-08
2.2916427e-09
3.3127374e-09
-2.5472843e-08
-2.7778015e-08
5.3010474e-09
6.7718898e-09
-2.3508536e-08
-2.6312256e-08
8.6313696e-09
1.0570267e-08
-2.1504728e-08
-2.4832501e-08
1.2202497e-08
1.4638668e-08
-1.9475932e-08
-2.3361015e-08
1.5946543e-08
1.891895e-08
-1.742977e-08
-2.1911982e-08
1.9806554e-08
2.3362614e-08
-1.5367959e-08
-2.0492384e-08
2.3734888e-08
2.7929204e-08
-1.3287363e-08
-1.9102989e-08
2.7692262e-08
3.2584694e-08
-1.1181053e-08
-1.7739369e-08
3.1645874e-08
3.7299978e-08
-9.0393476e-09
-1.6392881e-08
3.5568173e-08
4.2049502e-08
-6.8508107e-09
-1.5051587e-08
3.9435781e-08
4.6810093e-08
-4.6031805e-09
-1.3701107e-08
4.3228598e-08
5.1559965e-08
-2.2842249e-09
-1.2325409e-08
4.6929065e-08
5.6277919e-08
1.1749256e-10
-1.090751e-08
5.0521608e-08
6.094273e-08
2.61194e-09
-9.4301285e-09
5.3992214e-08
6.5532702e-08
5.2070454e-09
-7.8762671e-09
5.7328128e-08
7.0025393e-08
7.9082267e-09
-6.2297493e-09
6.0517672e-08
7.4397492e-08
1.0718027e-08
-4.4757087e-09
6.3550242e-08
7.8624842e-08
1.3635855e-08
-2.6010539e-09
6.6415804e-08
8.2682585e-08
1.6657833e-08
-5.9488712e-10
6.9105565e-08
8.6545461e-08
1.9776743e-08
1.5510711e-09
7.1611547e-08
9.0188198e-08
2.298207e-08
3.842069e-09
7.3926754e-08
9.3586036e-08
2.6260132e-08
6.2799006e-09
7.6045261e-08
9.6715382e-08
2.9594296e-08
8.8624536e-09
7.7962311e-08
9.9554795e-08
3.2965236e-08
1.1583224e-08
7.9674439e-08
1.0208513e-07
3.6351265e-08
1.4430746e-08
8.1179682e-08
1.0429179e-07
3.9728653e-08
1.7387948e-08
8.2477816e-08
1.0616518e-07
4.307193e-08
2.0431358e-08
8.3570701e-08
1.0770243e-07
4.6354114e-08
2.3530145e-08
8.4462735e-08
1.0890907e-07
4.9546805e-08
2.6644927e-08
8.5161428e-08
1.0980094e-07
5.262007e-08
2.9726323e-08
8.5678095e-08
1.1040634e-07
5.5542047e-08
3.2713165e-08
8.6028643e-08
1.1076824e-07
5.8278143e-08
3.5530049e-08
8.6234427e-08
1.1094696e-07
6.0789804e-08
3.8083595e-08
8.6323074e-08
1.1102368e-07
6.3033283e-08
4.0259518e-08
8.6328741e-08
1.1110263e-07
6.4959533e-08
4.1929761e-08
8.6290483e-08
1.1130259e-07
6.6513338e-08
4.2963449e-08
8.6250166e-08
1.1174379e-07
6.7615858e-08
4.313108e-08
8.6266749e-08
1.1264228e-07
6.8123724e-08
4.1807061e-08
8.6473947e-08
1.1461227e-07
6.7909232e-08
3.8369278e-08
8.7004632e-08
1.1826287e-07
-2.5906624e-08
-2.4236402e-08
9.3235274e-08
9.3958559e-08
-1.860342e-08
-2.6861923e-08
8.7686778e-08
9.2710798e-08
-1.4849143e-08
-3.0095884e-08
8.4433559e-08
9.038095e-08
-6.8807517e-09
-2.3660174e-08
7.3010597e-08
7.7069596e-08
-5.2286209e-09
-2.0378758e-08
6.528929e-08
6.6224699e-08
-7.4557092e-09
-1.9450366e-08
5.7948433e-08
5.5480209e-08
-1.1157509e-08
-1.9693682e-08
4.9656978e-08
4.4727957e-08
-1.5589929e-08
-2.0967753e-08
4.0884202e-08
3.4475265e-08
-2.0112761e-08
-2.2950808e-08
3.2093779e-08
2.5095977e-08
-2.4263885e-08
-2.5251375e-08
2.3722266e-08
1.6830832e-08
-2.7776317e-08
-2.7545833e-08
1.6154197e-08
9.8454742e-09
-3.0527429e-08
-2.9591922e-08
9.6672995e-09
4.2207703e-09
-3.2490765e-08
-3.1232124e-08
4.4225224e-09
-3.5742744e-11
-3.3702116e-08
-3.2389804e-08
4.7737052e-10
-2.9718957e-09
-3.4234339e-08
-3.304769e-08
-2.1923777e-09
-4.6766105e-09
-3.4178784e-08
-3.3230603e-08
-3.6683184e-09
-5.2678987e-09
-3.36322e-08
-3.2990071e-08
-4.0676121e-09
-4.8726492e-09
-3.2688261e-08
-3.239175e-08
-3.5252837e-09
-3.6203775e-09
-3.1432378e-08
-3.1505993e-08
-2.1810324e-09
-1.6366068e-09
-2.993888e-08
-3.0401288e-08
-1.7008509e-10
9.6302419e-10
-2.8269906e-08
-2.9140037e-08
2.3824535e-09
4.0723975e-09
-2.6475284e-08
-2.7776143e-08
5.3646539e-09
7.5972484e-09
-2.4593084e-08
-2.6353895e-08
8.6787427e-09
1.1457182e-08
-2.2650664e-08
-2.4907763e-08
1.2241278e-08
1.5582081e-08
-2.0665873e-08
-2.3462784e-08
1.5981838e-08
1.9912641e-08
-1.8648382e-08
-2.2035334e-08
1.9841706e-08
2.4399081e-08
-1.6601049e-08
-2.0634125e-08
2.3772338e-08
2.8999602e-08
-1.452126e-08
-1.9261254e-08
2.7733218e-08
3.367885e-08
-1.2402225e-08
-1.791326e-08
3.1690759e-08
3.8406478e-08
-1.0234187e-08
-1.6582155e-08
3.5616925e-08
4.3155833e-08
-8.005553e-09
-1.5256391e-08
3.9488052e-08
4.7902813e-08
-5.7039177e-09
-1.3921763e-08
4.328389e-08
5.262489e-08
-3.3169872e-09
-1.2562224e-08
4.6986826e-08
5.7300325e-08
-8.3339685e-10
-1.1160629e-08
5.0581301e-08
6.1907554e-08
1.756581e-09
-9.6994086e-09
5.4053364e-08
6.6424754e-08
4.4604386e-09
-8.1611771e-09
5.7390368e-08
7.0829569e-08
7.2829451e-09
-6.5292878e-09
6.0580769e-08
7.5098994e-08
1.022577e-08
-4.7883438e-09
6.361407e-08
7.9209398e-08
1.3287218e-08
-2.9246779e-09
6.6480513e-08
8.313668e-08
1.6462072e-08
-9.2679611e-10
6.917145e-08
8.6856561e-08
1.9741545e-08
1.2141813e-09
7.1679113e-08
9.0344988e-08
2.3113327e-08
3.5040864e-09
7.3996722e-08
9.3578653e-08
2.6561736e-08
5.945259e-09
7.6118566e-08
9.653565e-08
3.0067939e-08
8.5360744e-09
7.8040097e-08
9.9196301e-08
3.3610247e-08
1.1270436e-08
7.9758055e-08
1.0154385e-07
3.7164472e-08
1.4137183e-08
8.127066e-08
1.0356589e-07
4.0704275e-08
1.7119423e-08
8.2577849e-08
1.0525535e-07
4.4201517e-08
2.0193721e-08
8.3681623e-08
1.0661205e-07
4.7626533e-08
2.3329114e-08
8.4586484e-08
1.076443e-07
5.0948278e-08
2.6485901e-08
8.5300005e-08
1.0837085e-07
5.4134273e-08
2.9614166e-08
8.5833511e-08
1.0882285e-07
5.7150271e-08
3.2651989e-08
8.6202835e-08
1.0904613e-07
5.9959533e-08
3.5522961e-08
8.6429148e-08
1.0910372e-07
6.2521685e-08
3.8132468e-08
8.6539757e-08
1.090794e-07
6.4791596e-08
4.036483e-08
8.6568365e-08
1.0907992e-07
6.6719282e-08
4.2090516e-08
8.6553454e-08
1.0922681e-07
6.8248817e-08
4.3176643e-08
8.6536528e-08
1.0964455e-07
6.9300701e-08
4.3389886e-08
8.6578169e-08
1.1055851e-07
6.9736711e-08
4.2104349e-08
8.6802213e-08
1.125785e-07
6.9430554e-08
3.8714145e-08
8.7328452e-08
1.1630678e-07
)
;

boundaryField
{
    movingWall
    {
        type            zeroGradient;
    }
    CPLReceiveMD
    {
        type            zeroGradient;
    }
    streamwiseIn
    {
        type            cyclic;
    }
    streamwiseOut
    {
        type            cyclic;
    }
    front
    {
        type            cyclic;
    }
    back
    {
        type            cyclic;
    }
    procBoundary1to0
    {
        type            processor;
        value           nonuniform List<scalar> 
240
(
-3.0746934e-08
-2.4895768e-08
8.7636649e-08
9.4785941e-08
-2.3875398e-08
-2.7695629e-08
8.1407451e-08
9.3291962e-08
-2.0459485e-08
-3.1128167e-08
7.7943138e-08
9.0584351e-08
-1.2598878e-08
-2.486043e-08
6.6762537e-08
7.6907337e-08
-1.0832469e-08
-2.1697631e-08
5.958759e-08
6.5788975e-08
-1.2667473e-08
-2.0784819e-08
5.2964281e-08
5.489285e-08
-1.5779915e-08
-2.0968786e-08
4.5432769e-08
4.4094144e-08
-1.9532472e-08
-2.2111413e-08
3.7397665e-08
3.3869503e-08
-2.3368089e-08
-2.3928944e-08
2.9283846e-08
2.4561874e-08
-2.6874834e-08
-2.6053102e-08
2.1505585e-08
1.6390755e-08
-2.9817957e-08
-2.8176309e-08
1.4439852e-08
9.4980917e-09
-3.2089927e-08
-3.0073375e-08
8.3664244e-09
3.9572386e-09
-3.3664219e-08
-3.15939e-08
3.4526238e-09
-2.2914557e-10
-3.4568558e-08
-3.2655309e-08
-2.3406857e-10
-3.1106144e-09
-3.4864145e-08
-3.3238241e-08
-2.7072263e-09
-4.7734798e-09
-3.4629825e-08
-3.336445e-08
-4.0371228e-09
-5.3325491e-09
-3.3950589e-08
-3.3082006e-08
-4.3283162e-09
-4.9138033e-09
-3.2909786e-08
-3.2453371e-08
-3.7071055e-09
-3.6446547e-09
-3.1584234e-08
-3.1546147e-08
-2.3060952e-09
-1.6492225e-09
-3.0041359e-08
-3.0426558e-08
-2.5486194e-10
9.5762542e-10
-2.8337885e-08
-2.9155217e-08
2.3258863e-09
4.0711632e-09
-2.6519493e-08
-2.7784645e-08
5.3276323e-09
7.5984285e-09
-2.4621154e-08
-2.6358102e-08
8.6551257e-09
1.1459709e-08
-2.2667951e-08
-2.4909307e-08
1.222665e-08
1.5585177e-08
-2.0676087e-08
-2.346276e-08
1.597311e-08
1.9915833e-08
-1.8654054e-08
-2.2034459e-08
1.983681e-08
2.4402099e-08
-1.6603881e-08
-2.0632853e-08
2.3769836e-08
2.900231e-08
-1.4522377e-08
-1.9259861e-08
2.7732171e-08
3.3681194e-08
-1.2402357e-08
-1.7911905e-08
3.169056e-08
3.8408455e-08
-1.0233796e-08
-1.6580921e-08
3.5617186e-08
4.3157468e-08
-8.0049226e-09
-1.5255315e-08
3.9488533e-08
4.7904144e-08
-5.7032152e-09
-1.3920852e-08
4.3284446e-08
5.262596e-08
-3.3163056e-09
-1.2561469e-08
4.6987377e-08
5.7301176e-08
-8.3278246e-10
-1.1160015e-08
5.0581804e-08
6.1908225e-08
1.7571097e-09
-9.6989157e-09
5.4053801e-08
6.6425279e-08
4.4608792e-09
-8.1607862e-09
5.7390736e-08
7.0829977e-08
7.2833037e-09
-6.5289809e-09
6.058107e-08
7.5099309e-08
1.0226057e-08
-4.7881048e-09
6.3614312e-08
7.920964e-08
1.3287444e-08
-2.9244932e-09
6.6480704e-08
8.3136865e-08
1.6462248e-08
-9.2665432e-10
6.91716e-08
8.6856702e-08
1.974168e-08
1.2142895e-09
7.1679229e-08
9.0345094e-08
2.311343e-08
3.5041686e-09
7.3996811e-08
9.3578733e-08
2.6561814e-08
5.9453212e-09
7.6118634e-08
9.653571e-08
3.0067997e-08
8.5361212e-09
7.8040148e-08
9.9196346e-08
3.3610291e-08
1.1270471e-08
7.9758094e-08
1.0154389e-07
3.7164504e-08
1.4137209e-08
8.1270688e-08
1.0356592e-07
4.0704299e-08
1.7119442e-08
8.257787e-08
1.0525537e-07
4.4201535e-08
2.0193736e-08
8.3681638e-08
1.0661206e-07
4.7626546e-08
2.3329125e-08
8.4586495e-08
1.0764431e-07
5.0948288e-08
2.6485909e-08
8.5300013e-08
1.0837085e-07
5.413428e-08
2.9614173e-08
8.5833516e-08
1.0882285e-07
5.7150276e-08
3.2651993e-08
8.6202839e-08
1.0904613e-07
5.9959537e-08
3.5522964e-08
8.6429151e-08
1.0910372e-07
6.2521688e-08
3.813247e-08
8.6539759e-08
1.090794e-07
6.4791599e-08
4.0364832e-08
8.6568366e-08
1.0907992e-07
6.6719284e-08
4.2090517e-08
8.6553455e-08
1.0922682e-07
6.8248819e-08
4.3176644e-08
8.6536528e-08
1.0964455e-07
6.9300702e-08
4.3389887e-08
8.6578169e-08
1.1055851e-07
6.9736713e-08
4.210435e-08
8.6802213e-08
1.1257851e-07
6.9430555e-08
3.8714146e-08
8.7328452e-08
1.1630678e-07
)
;
    }
    procBoundary1to0throughback
    {
        type            processorCyclic;
        value           nonuniform List<scalar> 
240
(
-1.9716643e-08
-2.3880614e-08
-2.1351571e-08
-1.2772288e-08
-1.0658024e-08
-1.2818466e-08
-1.6228746e-08
-2.0067854e-08
-2.3822134e-08
-2.7144889e-08
-2.9868687e-08
-3.1922091e-08
-3.3298176e-08
-3.4032961e-08
-3.4188397e-08
-3.384009e-08
-3.3068305e-08
-3.1951618e-08
-3.056276e-08
-2.8966156e-08
-2.7216532e-08
-2.5358501e-08
-2.3426756e-08
-2.1446619e-08
-1.943492e-08
-1.7401025e-08
-1.5347959e-08
-1.3273556e-08
-1.1171603e-08
-9.0329407e-09
-6.8465137e-09
-4.6003344e-09
-2.2823677e-09
1.1868229e-10
2.6126844e-09
5.2074967e-09
7.9084881e-09
1.0718168e-08
1.3635921e-08
1.6657855e-08
1.9776741e-08
2.2982054e-08
2.626011e-08
2.9594273e-08
3.2965214e-08
3.6351245e-08
3.9728636e-08
4.3071916e-08
4.6354103e-08
4.9546796e-08
5.2620063e-08
5.5542041e-08
5.8278139e-08
6.0789802e-08
6.3033281e-08
6.4959531e-08
6.6513336e-08
6.7615856e-08
6.8123723e-08
6.790923e-08
-2.6066772e-08
-2.4782146e-08
-2.4206615e-08
-1.7304226e-08
-1.4445552e-08
-1.4680708e-08
-1.6167621e-08
-1.8497439e-08
-2.1299247e-08
-2.4194542e-08
-2.6889145e-08
-2.9186921e-08
-3.098024e-08
-3.2227955e-08
-3.2934455e-08
-3.3139834e-08
-3.2906051e-08
-3.2305584e-08
-3.1413126e-08
-3.0299792e-08
-2.9029446e-08
-2.7656663e-08
-2.6225892e-08
-2.4771478e-08
-2.3318207e-08
-2.1882174e-08
-2.0471789e-08
-1.9088876e-08
-1.7729785e-08
-1.6386438e-08
-1.5047304e-08
-1.3698299e-08
-1.2323597e-08
-1.0906365e-08
-9.4294236e-09
-7.8758491e-09
-6.2295147e-09
-4.4755888e-09
-2.6010036e-09
-5.9487717e-10
1.5510593e-09
3.8420469e-09
6.2798746e-09
8.8624277e-09
1.15832e-08
1.4430725e-08
1.738793e-08
2.0431343e-08
2.3530133e-08
2.6644918e-08
2.9726315e-08
3.271316e-08
3.5530045e-08
3.8083592e-08
4.0259515e-08
4.1929759e-08
4.2963447e-08
4.3131078e-08
4.180706e-08
3.8369276e-08
9.5300258e-08
8.7194381e-08
8.1523951e-08
7.0083678e-08
6.2358434e-08
5.5605994e-08
4.7907895e-08
3.9623119e-08
3.1211758e-08
2.3125255e-08
1.5767624e-08
9.4358354e-09
4.3036266e-09
4.3724765e-10
-2.17887e-09
-3.6200028e-09
-4.0005374e-09
-3.4512989e-09
-2.1085333e-09
-1.0481423e-10
2.4368708e-09
5.4061921e-09
8.7069415e-09
1.2256401e-08
1.5984745e-08
1.983341e-08
2.375366e-08
2.7705283e-08
3.1654826e-08
3.5574267e-08
3.9439885e-08
4.3231325e-08
4.6930851e-08
5.0522756e-08
5.3992934e-08
5.7328567e-08
6.0517927e-08
6.3550381e-08
6.6415869e-08
6.9105588e-08
7.1611545e-08
7.392674e-08
7.6045241e-08
7.7962289e-08
7.9674418e-08
8.1179663e-08
8.24778e-08
8.3570688e-08
8.4462724e-08
8.5161419e-08
8.5678088e-08
8.6028637e-08
8.6234423e-08
8.632307e-08
8.6328737e-08
8.629048e-08
8.6250164e-08
8.6266747e-08
8.6473945e-08
8.7004631e-08
1.0068167e-07
9.9882645e-08
9.815659e-08
8.6726928e-08
7.6178243e-08
6.552392e-08
5.4176748e-08
4.2850642e-08
3.2177997e-08
2.2588672e-08
1.4362651e-08
7.6436487e-09
2.4611616e-09
-1.2375363e-09
-3.5567766e-09
-4.6328377e-09
-4.6158889e-09
-3.6566628e-09
-1.8989222e-09
5.2235083e-10
3.4885944e-09
6.89693e-09
1.0658882e-08
1.4701072e-08
1.8962575e-08
2.3392878e-08
2.7950029e-08
3.25989e-08
3.7309576e-08
4.2055919e-08
4.681433e-08
5.1562721e-08
5.6279681e-08
6.0943831e-08
6.5533369e-08
7.002578e-08
7.4397702e-08
7.8624942e-08
8.2682621e-08
8.6545459e-08
9.0188177e-08
9.3586006e-08
9.6715351e-08
9.9554765e-08
1.020851e-07
1.0429176e-07
1.0616516e-07
1.0770241e-07
1.0890905e-07
1.0980093e-07
1.1040633e-07
1.1076824e-07
1.1094696e-07
1.1102367e-07
1.1110262e-07
1.1130259e-07
1.1174379e-07
1.1264228e-07
1.1461227e-07
1.1826287e-07
)
;
    }
}


// ************************************************************************* //
