/*--------------------------------*- C++ -*----------------------------------*\
| =========                 |                                                 |
| \\      /  F ield         | OpenFOAM: The Open Source CFD Toolbox           |
|  \\    /   O peration     | Version:  3.0.1                                 |
|   \\  /    A nd           | Web:      www.OpenFOAM.org                      |
|    \\/     M anipulation  |                                                 |
\*---------------------------------------------------------------------------*/
FoamFile
{
    version     2.0;
    format      ascii;
    class       surfaceScalarField;
    location    "250";
    object      phi;
}
// * * * * * * * * * * * * * * * * * * * * * * * * * * * * * * * * * * * * * //

dimensions      [0 3 -1 0 0 0 0];

internalField   nonuniform List<scalar> 
1072
(
-0.058140728
-4.2860137e-08
-2.3886661e-09
-0.058140695
-1.3728555e-08
6.9528788e-10
-0.058140735
4.8585913e-08
3.34644e-10
2.6755793e-08
2.7495489e-09
-0.078130921
-7.7665627e-08
-3.5899159e-09
-0.078130898
-4.6997972e-08
1.6844689e-09
-0.07813093
8.2235407e-08
-7.9049158e-10
6.4123226e-08
2.9310551e-09
-0.089400608
-1.9065591e-07
-4.5553832e-09
-0.089400488
-1.6254517e-07
1.6541805e-09
-0.089400622
1.9700508e-07
-1.9271548e-09
1.7965193e-07
2.2076934e-09
-0.10177218
-2.4440174e-07
-5.4322701e-09
-0.10177211
-2.2673966e-07
9.8605831e-10
-0.10177218
2.5550699e-07
-2.155382e-09
2.4390342e-07
2.0342166e-09
-0.10312669
-2.5851173e-07
-5.5611047e-09
-0.10312667
-2.5042413e-07
3.9656869e-10
-0.10312669
2.7456739e-07
-2.2779188e-09
2.6798379e-07
1.7006248e-09
-0.096552201
-1.9922709e-07
-5.1338243e-09
-0.096552252
-2.0001078e-07
-6.7092853e-11
-0.096552193
2.179296e-07
-2.140702e-09
2.1681739e-07
1.6052954e-09
-0.086606027
-8.6590663e-08
-4.453458e-09
-0.086606139
-9.0907209e-08
-2.9564508e-10
-0.086606023
1.0475844e-07
-1.8013925e-09
1.0520475e-07
1.4892902e-09
-0.07555534
3.3978136e-08
-3.6709359e-09
-0.075555469
3.3161722e-08
-4.2137084e-10
-0.075555341
-1.9364315e-08
-1.4519825e-09
-2.3275191e-08
1.3198582e-09
-0.06399077
1.3403479e-07
-2.9110128e-09
-0.063990885
1.4154716e-07
-4.7046761e-10
-0.063990776
-1.2532964e-07
-1.1515019e-09
-1.3759108e-07
1.1156167e-09
-0.051771944
2.0683725e-07
-2.22518e-09
-0.051772034
2.2473708e-07
-4.6339517e-10
-0.051771952
-2.0560202e-07
-8.9604415e-10
-2.2773579e-07
8.9982593e-10
-0.038550304
2.5789752e-07
-1.6416148e-09
-0.038550372
2.866297e-07
-4.2094128e-10
-0.038550312
-2.6493384e-07
-6.8361775e-10
-2.9709364e-07
6.9098797e-10
-0.023986081
2.9642714e-07
-1.1627639e-09
-0.023986137
3.3602209e-07
-3.6142948e-10
-0.02398609
-3.1187209e-07
-5.1071149e-10
-3.5398363e-07
5.0105361e-10
-0.007812906
3.3062483e-07
-7.7999976e-10
-0.0078129573
3.8145055e-07
-2.978364e-10
-0.0078129156
-3.5408741e-07
-3.7283404e-10
-4.0652951e-07
3.2389377e-10
0.010165526
3.6587385e-07
-4.7992023e-10
0.010165474
4.2898045e-07
-2.3666155e-10
0.010165515
-3.9659897e-07
-2.6549244e-10
-4.6049054e-07
1.8377251e-10
0.030103811
4.0462496e-07
-2.480641e-10
0.030103753
4.8181525e-07
-1.8124848e-10
0.030103797
-4.4163828e-07
-1.8408154e-10
-5.1893407e-07
9.9510674e-11
0.052146127
4.4706169e-07
-7.0733308e-11
0.052146064
5.408119e-07
-1.3308043e-10
0.052146111
-4.8928324e-07
-1.2376775e-10
-5.8259256e-07
1.5046715e-11
0.076450676
4.9195915e-07
6.4008289e-11
0.076450608
6.0528488e-07
-9.2467594e-11
0.076450657
-5.3829221e-07
-8.0238846e-11
-6.5074161e-07
-5.9479565e-11
0.10320489
5.3742453e-07
1.6605408e-10
0.10320482
6.7374414e-07
-5.9014712e-11
0.10320487
-5.8682147e-07
-4.9774377e-11
-7.2192786e-07
-1.2167835e-10
0.13263281
5.814032e-07
2.4333239e-10
0.13263274
7.4442085e-07
-3.2012375e-11
0.13263278
-6.329089e-07
-2.9298742e-11
-7.9446491e-07
-1.7289757e-10
0.16499709
6.2195852e-07
3.0201113e-10
0.16499702
8.1556826e-07
-1.0570433e-11
0.16499706
-6.7473517e-07
-1.6298696e-11
-8.6671334e-07
-2.1591139e-10
0.20059806
6.5738772e-07
3.467353e-10
0.20059798
8.8558989e-07
6.255252e-12
0.20059802
-7.1072528e-07
-8.7449039e-12
-9.3719427e-07
-2.5311166e-10
0.23977124
6.8624345e-07
3.8090543e-10
0.23977117
9.5306174e-07
1.9380921e-11
0.2397712
-7.3955965e-07
-5.0979926e-12
-1.0045966e-06
-2.8855445e-10
0.28288434
7.0731418e-07
4.0687001e-10
0.28288427
1.0167034e-06
2.9654664e-11
0.2828843
-7.6014834e-07
-3.9703696e-12
-1.0677649e-06
-3.1443117e-10
0.33033401
7.1959724e-07
4.2622994e-10
0.33033395
1.0753338e-06
3.7824987e-11
0.33033396
-7.7159769e-07
-4.5519044e-12
-1.1256179e-06
-3.3742222e-10
0.38254247
7.222782e-07
4.3999292e-10
0.38254242
1.1278298e-06
4.4516912e-11
0.38254242
-7.7318737e-07
-6.3592839e-12
-1.1771203e-06
-3.5750321e-10
0.43995405
7.1472227e-07
4.4873817e-10
0.43995401
1.1730959e-06
5.0236738e-11
0.439954
-7.6436058e-07
-9.3333234e-12
-1.2212496e-06
-3.7437325e-10
0.50303149
6.9647685e-07
4.5274719e-10
0.50303145
1.2100449e-06
5.5394886e-11
0.50303143
-7.447308e-07
-1.1094208e-11
-1.2569776e-06
-3.87669e-10
0.57225201
6.6728253e-07
4.5210494e-10
0.57225199
1.2375893e-06
6.0311889e-11
0.57225196
-7.1408798e-07
-1.3058488e-11
-1.2832623e-06
-3.9699961e-10
0.64810313
6.2708942e-07
4.4677931e-10
0.64810312
1.2546426e-06
6.5219029e-11
0.64810308
-6.7241907e-07
-1.4997729e-11
-1.2990503e-06
-4.0198324e-10
0.73107814
5.7607583e-07
4.3668015e-10
0.73107813
1.2601278e-06
7.0266116e-11
0.73107808
-6.1992833e-07
-1.6780205e-11
-1.3032869e-06
-4.0227072e-10
0.8216713
5.1466715e-07
4.2170243e-10
0.82167131
1.2529938e-06
7.5531254e-11
0.82167125
-5.5705787e-07
-1.8335805e-11
-1.2949343e-06
-3.975611e-10
0.92037279
4.4355249e-07
4.0175767e-10
0.92037281
1.2322387e-06
8.1029939e-11
0.92037274
-4.8450603e-07
-1.9635911e-11
-1.2729966e-06
-3.8761191e-10
1.0276633
3.6369714e-07
3.7679649e-10
1.0276633
1.1969405e-06
8.6723716e-11
1.0276633
-4.0324134e-07
-2.0680303e-11
-1.2365519e-06
-3.7224573e-10
1.1440086
2.7634865e-07
3.4682505e-10
1.1440086
1.146295e-06
9.2528926e-11
1.1440085
-3.1451012e-07
-2.1488732e-11
-1.1847914e-06
-3.5135409e-10
1.2698534
1.8303461e-07
3.119163e-10
1.2698535
1.0796591e-06
9.832358e-11
1.2698534
-2.1983536e-07
-2.2095511e-11
-1.1170643e-06
-3.2490093e-10
1.405616
8.5549945e-08
2.7221811e-10
1.4056161
9.9660132e-07
1.0395363e-10
1.405616
-1.2100515e-07
-2.2546826e-11
-1.0329289e-06
-2.9292555e-10
1.5516819
-1.4067919e-08
2.2795899e-10
1.551682
8.9695612e-07
1.0923913e-10
1.5516819
-2.004864e-08
-2.2897908e-11
-9.3220815e-07
-2.5554455e-10
1.7083977
-1.1357762e-07
1.7945134e-10
1.7083978
7.8088219e-07
1.1398055e-10
1.7083977
8.0801697e-08
-2.3191828e-11
-8.1504812e-07
-2.1295375e-10
1.8760656
-2.1058715e-07
1.2709368e-10
1.8760657
6.4892225e-07
1.1796381e-10
1.8760656
1.7916316e-07
-2.3532703e-11
-6.8197893e-07
-1.6543133e-10
2.054937
-3.0262224e-07
7.1370783e-11
2.0549371
5.0206289e-07
1.2096859e-10
2.054937
2.7257042e-07
-2.3975143e-11
-5.3397472e-07
-1.1333745e-10
2.2452074
-3.8720943e-07
1.2852419e-11
2.2452076
3.4179206e-07
1.2277406e-10
2.2452075
3.5855829e-07
-2.4597278e-11
-3.7251154e-07
-5.7116706e-11
2.4470112
-4.6197229e-07
-4.7814399e-11
2.4470113
1.7015208e-07
1.23166e-10
2.4470112
4.347577e-07
-2.5479309e-11
-1.996208e-07
2.6997683e-12
2.6604161
-5.2473836e-07
-1.0989039e-10
2.6604163
-1.0214041e-08
1.219445e-10
2.6604162
4.9900218e-07
-2.6696072e-11
-1.7936016e-08
6.5496825e-11
2.8854199
-5.7365252e-07
-1.7258089e-10
2.8854201
-1.9602499e-07
1.1893124e-10
2.8854201
5.4944108e-07
-2.8333607e-11
1.6926892e-07
1.3063276e-10
3.121946
-6.0729195e-07
-2.3502672e-10
3.1219461
-3.8333452e-07
1.1397725e-10
3.1219461
5.8465358e-07
-3.046114e-11
3.5805331e-07
1.9723414e-10
3.3698405
-6.2477476e-07
-2.963159e-10
3.3698407
-5.6751807e-07
1.0697125e-10
3.3698407
6.0375723e-07
-3.3145604e-11
5.4379491e-07
2.6450475e-10
3.6288704
-6.258543e-07
-3.5549805e-10
3.6288706
-7.4327593e-07
9.7847039e-11
3.6288706
6.0650141e-07
-3.64468e-11
7.2119265e-07
3.3152478e-10
3.898722
-6.1098812e-07
-4.1160084e-10
3.8987221
-9.0465808e-07
8.659156e-11
3.8987221
5.9333564e-07
-4.041524e-11
8.8429085e-07
3.9731602e-10
4.1790001
-5.8136942e-07
-4.636468e-10
4.1790003
-1.0451196e-06
7.3252812e-11
4.1790003
5.6544043e-07
-4.5089558e-11
1.026534e-06
4.6085765e-10
4.4692294
-5.3890734e-07
-5.1067221e-10
4.4692295
-1.1576227e-06
5.7947407e-11
4.4692295
5.2470716e-07
-5.0493419e-11
1.1408685e-06
5.2110216e-10
4.7688551
-4.8614197e-07
-5.5174923e-10
4.7688552
-1.234812e-06
4.0868504e-11
4.7688552
4.7365329e-07
-5.6629456e-11
1.2199183e-06
5.7699684e-10
5.0772461
-4.2608164e-07
-5.8600895e-10
5.0772461
-1.2693097e-06
2.229094e-11
5.0772462
4.1526056e-07
-6.3471181e-11
1.2562814e-06
6.2750823e-10
5.3936983
-3.6195561e-07
-6.1266929e-10
5.3936983
-1.2542034e-06
2.582145e-12
5.3936984
3.5272997e-07
-7.0952913e-11
1.2430198e-06
6.7164411e-10
5.7174392
-2.9688902e-07
-6.3106755e-10
5.7174391
-1.1838425e-06
-1.7808893e-11
5.7174392
2.8916074e-07
-7.8955575e-11
1.174461e-06
7.0846072e-10
6.0476334
-2.3353582e-07
-6.4069929e-10
6.0476332
-1.0551277e-06
-3.8374296e-11
6.0476333
2.2718946e-07
-8.7315e-11
1.047493e-06
7.3703955e-10
6.3833889
-1.7375921e-07
-6.4122251e-10
6.3833887
-8.6957716e-07
-5.8576662e-11
6.3833888
1.6867904e-07
-9.5822528e-11
8.6363979e-07
7.5637538e-10
6.7237646
-1.1853771e-07
-6.3237867e-10
6.7237644
-6.3653826e-07
-7.7684583e-11
6.7237644
1.1463605e-07
-1.043457e-10
6.3228338e-07
7.6492718e-10
7.0677779
-6.8396509e-08
-6.1392772e-10
7.0677776
-3.7787893e-07
-9.4304739e-11
7.0677776
6.566164e-08
-1.1347652e-10
3.7536592e-07
7.5928867e-10
7.4144132
-2.5232237e-08
-5.8774454e-10
7.414413
-1.3595784e-07
-1.0832653e-10
7.414413
2.3775494e-08
-1.196148e-10
1.3532566e-07
7.4106984e-10
7.7626315
-4.9480071e-10
7.7626314
-1.1216626e-10
7.7626314
-1.0532095e-10
6.3620469e-10
-0.058140736
-3.3058216e-08
-0.058140703
-4.238919e-09
-0.058140744
3.6835631e-08
1.9454427e-08
-0.078130913
-6.8212887e-08
-0.078130894
-4.0732554e-08
-0.078130922
7.654434e-08
5.9960993e-08
-0.089400607
-1.8557356e-07
-0.089400487
-1.6344172e-07
-0.089400621
1.9917795e-07
1.8211879e-07
-0.10177215
-2.371947e-07
-0.10177209
-2.2721512e-07
-0.10177215
2.5670838e-07
2.4581617e-07
-0.10312666
-2.518211e-07
-0.10312664
-2.5145569e-07
-0.10312666
2.751111e-07
2.686205e-07
-0.096552171
-1.9169968e-07
-0.096552227
-1.9994026e-07
-0.096552164
2.1535346e-07
2.1397488e-07
-0.086606008
-7.9164418e-08
-0.086606123
-8.9947775e-08
-0.086606004
9.9920549e-08
9.9167851e-08
-0.075555335
4.0000486e-08
-0.075555465
3.4031884e-08
-0.075555337
-2.486247e-08
-3.1035075e-08
-0.063990775
1.3810717e-07
-0.063990889
1.4164438e-07
-0.063990781
-1.3056166e-07
-1.458723e-07
-0.051771953
2.0907415e-07
-0.051772041
2.2395599e-07
-0.05177196
-2.1027935e-07
-2.3589254e-07
-0.038550313
2.5870913e-07
-0.03855038
2.8515124e-07
-0.038550321
-2.6905885e-07
-3.0485729e-07
-0.023986089
2.9627299e-07
-0.023986144
3.3412254e-07
-0.023986098
-3.1554282e-07
-3.6127337e-07
-0.0078129137
3.2989852e-07
-0.0078129637
3.7941765e-07
-0.007812923
-3.5740367e-07
-4.133665e-07
0.010165519
3.6487408e-07
0.010165468
4.2703718e-07
0.010165508
-3.9961735e-07
-4.6691771e-07
0.030103803
4.0356069e-07
0.030103747
4.8011291e-07
0.03010379
-4.4437294e-07
-5.2490905e-07
0.052146119
4.4606535e-07
0.052146057
5.3944031e-07
0.052146103
-4.9172294e-07
-5.8811372e-07
0.076450667
4.9110497e-07
0.076450601
6.0428776e-07
0.076450648
-5.4041756e-07
-6.5582615e-07
0.10320488
5.3674523e-07
0.10320481
6.7313394e-07
0.10320486
-5.8861569e-07
-7.2659804e-07
0.1326328
5.8090281e-07
0.13263273
7.4419026e-07
0.13263277
-6.3436379e-07
-7.9875182e-07
0.16499708
6.2162196e-07
0.16499701
8.1569794e-07
0.16499705
-6.7585249e-07
-8.7063927e-07
0.20059804
6.5718718e-07
0.20059797
8.8605332e-07
0.20059801
-7.1151618e-07
-9.4078153e-07
0.23977122
6.8614311e-07
0.23977115
9.5382802e-07
0.23977118
-7.4004277e-07
-1.0078765e-06
0.28288432
7.0727436e-07
0.28288426
1.0177389e-06
0.28288428
-7.6034623e-07
-1.0707448e-06
0.33033399
7.1957672e-07
0.33033393
1.076603e-06
0.33033394
-7.7153556e-07
-1.1283043e-06
0.38254245
7.2223622e-07
0.3825424
1.1292961e-06
0.3825424
-7.7289259e-07
-1.1795172e-06
0.43995403
7.146202e-07
0.43995399
1.1747218e-06
0.43995398
-7.6386286e-07
-1.2233585e-06
0.50303147
6.9627959e-07
0.50303143
1.211792e-06
0.50303141
-7.4405538e-07
-1.2587966e-06
0.57225199
6.6695959e-07
0.57225197
1.2394192e-06
0.57225194
-7.1326025e-07
-1.2847869e-06
0.64810311
6.2661564e-07
0.6481031
1.2565161e-06
0.64810306
-6.7146419e-07
-1.300273e-06
0.73107812
5.7543197e-07
0.73107811
1.2620055e-06
0.73107806
-6.1887114e-07
-1.304198e-06
0.82167128
5.1384023e-07
0.82167129
1.2548358e-06
0.82167123
-5.5592301e-07
-1.2955225e-06
0.92037277
4.4253604e-07
0.92037279
1.2340049e-06
0.92037272
-4.8331808e-07
-1.2732491e-06
1.0276633
3.6249128e-07
1.0276633
1.1985908e-06
1.0276632
-4.0202512e-07
-1.2364553e-06
1.1440085
2.749601e-07
1.1440086
1.1477892e-06
1.1440085
-3.1329083e-07
-1.1843321e-06
1.2698534
1.8147658e-07
1.2698535
1.0809574e-06
1.2698534
-2.1863876e-07
-1.1162293e-06
1.405616
8.3841943e-08
1.4056161
9.9766484e-07
1.405616
-1.198576e-07
-1.0317066e-06
1.5516819
-1.5900462e-08
1.551682
8.9774722e-07
1.5516819
-1.8977064e-08
-9.3058865e-07
1.7083977
-1.1550382e-07
1.7083978
7.8136526e-07
1.7083977
8.1770128e-08
-8.1302454e-07
1.8760656
-2.1257131e-07
1.8760657
6.4906449e-07
1.8760656
1.8000114e-07
-6.7954797e-07
2.054937
-3.0462471e-07
2.0549371
5.0183523e-07
2.054937
2.732511e-07
-5.3113755e-07
2.2452074
-3.8918759e-07
2.2452076
3.4117012e-07
2.2452075
3.5905592e-07
-3.692748e-07
2.4470111
-4.6388184e-07
2.4470113
1.6911729e-07
2.4470112
4.3504838e-07
-1.959975e-07
2.6604161
-5.2653471e-07
2.6604163
-1.1673284e-08
2.6604162
4.990648e-07
-1.3946503e-08
2.8854199
-5.7529256e-07
2.8854201
-1.9791207e-07
2.8854201
5.4925829e-07
1.7359632e-07
3.121946
-6.0873589e-07
3.1219461
-3.8564333e-07
3.1219461
5.8421305e-07
3.6268076e-07
3.3698405
-6.2598827e-07
3.3698407
-5.7023172e-07
3.3698407
6.0305285e-07
5.4867443e-07
3.6288704
-6.2681081e-07
3.6288706
-7.4636541e-07
3.6288706
6.055346e-07
7.2626526e-07
3.898722
-6.1167117e-07
3.8987221
-9.0808094e-07
3.8987222
5.921168e-07
8.8948569e-07
4.1790002
-5.81775e-07
4.1790003
-1.0488186e-06
4.1790003
5.639903e-07
1.0317676e-06
4.4692294
-5.3904594e-07
4.4692295
-1.1615244e-06
4.4692296
5.2305825e-07
1.1460442e-06
4.7688551
-4.8604005e-07
4.7688552
-1.2388256e-06
4.7688552
4.7185112e-07
1.2249258e-06
5.0772461
-4.2578196e-07
5.0772462
-1.2733258e-06
5.0772462
4.1336458e-07
1.260997e-06
5.3936983
-3.6151566e-07
5.3936983
-1.2580937e-06
5.3936984
3.5081375e-07
1.2473074e-06
5.7174392
-2.9637664e-07
5.7174391
-1.1874615e-06
5.7174392
2.8731087e-07
1.1781751e-06
6.0476334
-2.3302066e-07
6.0476333
-1.0583198e-06
6.0476333
2.2550236e-07
1.0504871e-06
6.3833889
-1.7329873e-07
6.3833887
-8.7219488e-07
6.3833888
1.6725579e-07
8.6578332e-07
6.7237646
-1.1815755e-07
6.7237644
-6.3848688e-07
6.7237644
1.1357654e-07
6.3349973e-07
7.0677779
-6.8066325e-08
7.0677776
-3.7921559e-07
7.0677777
6.5057701e-08
3.7571082e-07
7.4144133
-2.4882366e-08
7.414413
-1.369137e-07
7.4144131
2.3717031e-08
1.3506406e-07
7.7626315
7.7626314
7.7626314
)
;

boundaryField
{
    movingWall
    {
        type            calculated;
        value           uniform 0;
    }
    CPLReceiveMD
    {
        type            calculated;
        value           uniform 0;
    }
    streamwiseIn
    {
        type            cyclic;
        value           nonuniform List<scalar> 
120
(
0.058140764
0.07813095
0.08940074
0.10177225
0.10312671
0.096552143
0.086605912
0.075555215
0.063990664
0.051771864
0.038550246
0.023986036
0.0078128665
-0.010165566
-0.030103853
-0.052146172
-0.076450723
-0.10320494
-0.13263285
-0.16499713
-0.20059809
-0.23977126
-0.28288436
-0.33033402
-0.38254247
-0.43995404
-0.50303147
-0.57225198
-0.64810309
-0.73107809
-0.82167124
-0.92037272
-1.0276632
-1.1440085
-1.2698533
-1.4056159
-1.5516818
-1.7083976
-1.8760655
-2.0549369
-2.2452074
-2.4470111
-2.6604161
-2.8854199
-3.1219459
-3.3698405
-3.6288704
-3.898722
-4.1790002
-4.4692294
-4.7688552
-5.0772462
-5.3936984
-5.7174393
-6.0476334
-6.383389
-6.7237647
-7.0677779
-7.4144133
-7.7626315
0.058140777
0.07813094
0.089400743
0.10177222
0.10312669
0.096552112
0.086605892
0.07555521
0.06399067
0.051771874
0.038550255
0.023986044
0.0078128732
-0.01016556
-0.030103847
-0.052146165
-0.076450716
-0.10320493
-0.13263284
-0.16499712
-0.20059808
-0.23977125
-0.28288434
-0.330334
-0.38254246
-0.43995403
-0.50303145
-0.57225196
-0.64810307
-0.73107807
-0.82167122
-0.9203727
-1.0276632
-1.1440085
-1.2698533
-1.4056159
-1.5516818
-1.7083976
-1.8760655
-2.0549369
-2.2452074
-2.4470111
-2.6604161
-2.8854199
-3.1219459
-3.3698405
-3.6288704
-3.898722
-4.1790002
-4.4692295
-4.7688552
-5.0772462
-5.3936984
-5.7174393
-6.0476335
-6.383389
-6.7237647
-7.0677779
-7.4144133
-7.7626315
)
;
    }
    streamwiseOut
    {
        type            cyclic;
        value           nonuniform List<scalar> 
120
(
-0.058140764
-0.07813095
-0.08940074
-0.10177225
-0.10312671
-0.096552143
-0.086605912
-0.075555215
-0.063990664
-0.051771864
-0.038550246
-0.023986036
-0.0078128665
0.010165566
0.030103853
0.052146172
0.076450723
0.10320494
0.13263285
0.16499713
0.20059809
0.23977126
0.28288436
0.33033402
0.38254247
0.43995404
0.50303147
0.57225198
0.64810309
0.73107809
0.82167124
0.92037272
1.0276632
1.1440085
1.2698533
1.4056159
1.5516818
1.7083976
1.8760655
2.0549369
2.2452074
2.4470111
2.6604161
2.8854199
3.1219459
3.3698405
3.6288704
3.898722
4.1790002
4.4692294
4.7688552
5.0772462
5.3936984
5.7174393
6.0476334
6.383389
6.7237647
7.0677779
7.4144133
7.7626315
-0.058140777
-0.07813094
-0.089400743
-0.10177222
-0.10312669
-0.096552112
-0.086605892
-0.07555521
-0.06399067
-0.051771874
-0.038550255
-0.023986044
-0.0078128732
0.01016556
0.030103847
0.052146165
0.076450716
0.10320493
0.13263284
0.16499712
0.20059808
0.23977125
0.28288434
0.330334
0.38254246
0.43995403
0.50303145
0.57225196
0.64810307
0.73107807
0.82167122
0.9203727
1.0276632
1.1440085
1.2698533
1.4056159
1.5516818
1.7083976
1.8760655
2.0549369
2.2452074
2.4470111
2.6604161
2.8854199
3.1219459
3.3698405
3.6288704
3.898722
4.1790002
4.4692295
4.7688552
5.0772462
5.3936984
5.7174393
6.0476335
6.383389
6.7237647
7.0677779
7.4144133
7.7626315
)
;
    }
    front
    {
        type            cyclic;
        value           nonuniform 0();
    }
    back
    {
        type            cyclic;
        value           nonuniform 0();
    }
    procBoundary1to0
    {
        type            processor;
        value           nonuniform List<scalar> 
240
(
-1.3589556e-09
7.4584218e-10
1.6769225e-09
2.5184868e-09
-2.5755048e-09
1.7453185e-09
8.1056781e-10
2.8879794e-09
-3.4691129e-09
2.0636604e-09
-2.9352765e-10
2.257587e-09
-4.0586162e-09
1.5038683e-09
-5.8894126e-10
2.1561002e-09
-4.2189378e-09
9.0444187e-10
-8.5342167e-10
1.869514e-09
-3.9704641e-09
3.4396961e-10
-8.3388984e-10
1.7906357e-09
-3.4310281e-09
-1.1292763e-10
-7.4326083e-10
1.6677418e-09
-2.8161929e-09
-2.3177525e-10
-6.3512702e-10
1.4771044e-09
-2.2208566e-09
-2.9552256e-10
-5.2694791e-10
1.2452345e-09
-1.6878222e-09
-3.1931269e-10
-4.271372e-10
1.0003176e-09
-1.2286216e-09
-3.1099204e-10
-3.2747735e-10
7.65451e-10
-8.4927849e-10
-2.8121156e-10
-2.4099588e-10
5.536403e-10
-5.4741731e-10
-2.4010487e-10
-1.7659999e-10
3.7186546e-10
-3.1096595e-10
-1.9623066e-10
-1.2635749e-10
2.0626907e-10
-1.2782317e-10
-1.5366037e-10
-8.7288614e-11
1.0147726e-10
1.307102e-11
-1.1470014e-10
-5.7343086e-11
1.7625336e-11
1.2113009e-10
-8.0535518e-11
-3.5596387e-11
-5.8843585e-11
2.0403194e-10
-5.1505223e-11
-2.0499371e-11
-1.2264039e-10
2.6785023e-10
-2.747675e-11
-1.0665759e-11
-1.74822e-10
3.1726881e-10
-7.9933013e-12
-4.8879338e-12
-2.181565e-10
3.5576338e-10
7.5715686e-12
-2.1247244e-12
-2.5555748e-10
3.8584611e-10
1.9908942e-11
-1.5485111e-12
-2.9160402e-10
4.092088e-10
2.9708761e-11
-2.3721779e-12
-3.1657009e-10
4.269755e-10
3.7610172e-11
-4.0747815e-12
-3.3934043e-10
4.3981584e-10
4.416528e-11
-6.4302372e-12
-3.5916677e-10
4.4807314e-10
4.9830573e-11
-9.4141288e-12
-3.7578125e-10
4.5186724e-10
5.4984221e-11
-1.150589e-11
-3.8883817e-10
4.511745e-10
5.9925189e-11
-1.3614977e-11
-3.9795575e-10
4.458914e-10
6.4870847e-11
-1.5589274e-11
-4.0275548e-10
4.3588194e-10
6.996228e-11
-1.7345283e-11
-4.0288793e-10
4.2101267e-10
7.5272296e-11
-1.8843423e-11
-3.9805001e-10
4.0117825e-10
8.0813385e-11
-2.0073882e-11
-3.8799617e-10
3.7632016e-10
8.6545443e-11
-2.1047477e-11
-3.7254565e-10
3.4644009e-10
9.2384182e-11
-2.1789956e-11
-3.515867e-10
3.1160949e-10
9.8207403e-11
-2.2338451e-11
-3.2508027e-10
2.7197642e-10
1.0386137e-10
-2.274006e-11
-2.9306304e-10
2.2777051e-10
1.0916657e-10
-2.3049838e-11
-2.556494e-10
1.7930562e-10
1.1392399e-10
-2.3310143e-11
-2.1303329e-10
1.2698193e-10
1.1792009e-10
-2.3624087e-11
-1.6549137e-10
7.1285694e-11
1.2093505e-10
-2.4045249e-11
-1.1338255e-10
1.2788041e-11
1.2274852e-10
-2.4650724e-11
-5.7150421e-11
-4.7859474e-11
1.2314671e-10
-2.5519832e-11
2.6748003e-12
-1.0992483e-10
1.2193007e-10
-2.6729573e-11
6.5479056e-11
-1.72607e-10
1.1892049e-10
-2.835888e-11
1.3062305e-10
-2.3504645e-10
1.1396934e-10
-3.0480164e-11
1.9722693e-10
-2.963303e-10
1.0696546e-10
-3.3159993e-11
2.644994e-10
-3.5550853e-10
9.7842825e-11
-3.6457679e-11
3.3152086e-10
-4.1160847e-10
8.6588505e-11
-4.0423426e-11
3.973132e-10
-4.6365239e-10
7.3250628e-11
-4.50957e-11
4.6085568e-10
-5.1067636e-10
5.7945902e-11
-5.0497971e-11
5.2110074e-10
-5.5175217e-10
4.0867416e-11
-5.6632848e-11
5.7699581e-10
-5.8601105e-10
2.2290241e-11
-6.3473811e-11
6.2750755e-10
-6.1267061e-10
2.5817137e-12
-7.0955083e-11
6.716437e-10
-6.3106835e-10
-1.7809195e-11
-7.8957405e-11
7.0846058e-10
-6.4069974e-10
-3.837445e-11
-8.7316482e-11
7.3703944e-10
-6.4122283e-10
-5.8576704e-11
-9.5823702e-11
7.5637529e-10
-6.3237898e-10
-7.7684468e-11
-1.0434662e-10
7.6492713e-10
-6.1392806e-10
-9.4304594e-11
-1.1347701e-10
7.5928848e-10
-5.8774487e-10
-1.0832651e-10
-1.1961512e-10
7.410697e-10
-4.948009e-10
-1.1216631e-10
-1.053212e-10
6.3620444e-10
)
;
    }
    procBoundary1to0throughback
    {
        type            processorCyclic;
        value           nonuniform List<scalar> 
240
(
-2.9103043e-09
3.6557013e-11
1.6751572e-10
-1.2505536e-10
-2.028847e-11
3.8130747e-10
6.7506162e-10
8.1033798e-10
8.038746e-10
7.0219761e-10
5.4605987e-10
3.7366857e-10
2.1224501e-10
7.1807825e-11
-4.476078e-11
-1.3866024e-10
-2.1297764e-10
-2.7135444e-10
-3.1722923e-10
-3.5344691e-10
-3.8222958e-10
-4.0516156e-10
-4.2328222e-10
-4.3721035e-10
-4.4724463e-10
-4.5345367e-10
-4.5575467e-10
-4.5397543e-10
-4.4790337e-10
-4.3732237e-10
-4.2204018e-10
-4.0190843e-10
-3.7683695e-10
-3.4680427e-10
-3.1186491e-10
-2.7215475e-10
-2.2789433e-10
-1.7939121e-10
-1.2704077e-10
-7.1325905e-11
-1.2815319e-11
4.7840699e-11
1.0991176e-10
1.7259804e-10
2.3504038e-10
2.9632629e-10
3.5550593e-10
4.1160685e-10
4.6365143e-10
5.1067573e-10
5.5175177e-10
5.8601071e-10
6.1267035e-10
6.3106816e-10
6.4069966e-10
6.4122282e-10
6.3237898e-10
6.1392818e-10
5.8774533e-10
4.948018e-10
-5.7117713e-11
-8.9016577e-10
-2.1241947e-09
-2.3710865e-09
-2.0666925e-09
-1.4839141e-09
-1.0044798e-09
-6.6033746e-10
-3.9738751e-10
-2.4774726e-10
-1.1868563e-10
-2.4208716e-11
8.5299281e-12
2.0777363e-11
2.1108064e-11
1.5131756e-11
6.329529e-12
-3.248288e-12
-1.2491506e-11
-2.0858725e-11
-2.8163358e-11
-3.443847e-11
-3.9844824e-11
-4.4600515e-11
-4.8929764e-11
-5.303751e-11
-5.7113302e-11
-6.1316699e-11
-6.5763336e-11
-7.0521281e-11
-7.5611526e-11
-8.1010095e-11
-8.665157e-11
-9.2434161e-11
-9.8223857e-11
-1.0385876e-10
-1.0915405e-10
-1.1390715e-10
-1.1790218e-10
-1.2091791e-10
-1.2273308e-10
-1.2313328e-10
-1.2191848e-10
-1.1891066e-10
-1.1396103e-10
-1.069584e-10
-9.7836749e-11
-8.658329e-11
-7.3246243e-11
-5.7942344e-11
-4.0864616e-11
-2.2287903e-11
-2.5795645e-12
1.7811191e-11
3.8376387e-11
5.8578446e-11
7.7686405e-11
9.4306497e-11
1.083282e-10
1.1216765e-10
-1.1077394e-09
-2.0317394e-10
4.6568253e-10
3.5512908e-10
3.8855e-10
2.9852376e-10
2.3076968e-10
1.8525128e-10
1.4866412e-10
1.1365085e-10
7.2326841e-11
4.2812898e-11
2.4336835e-11
8.8036035e-12
-3.3274875e-12
-1.224772e-11
-1.7538298e-11
-1.9799495e-11
-1.9703755e-11
-1.7852164e-11
-1.4793127e-11
-1.0984642e-11
-6.9163655e-12
-2.8421623e-12
1.4325232e-12
5.7510805e-12
8.9646074e-12
1.1812673e-11
1.4306296e-11
1.643339e-11
1.8197724e-11
1.9618914e-11
2.0728697e-11
2.156791e-11
2.2184724e-11
2.2634321e-11
2.2977575e-11
2.3261192e-11
2.3591134e-11
2.4023215e-11
2.4636173e-11
2.5510222e-11
2.6723265e-11
2.8354134e-11
3.0476603e-11
3.3157142e-11
3.6455358e-11
4.042152e-11
4.5094097e-11
5.0496767e-11
5.6632047e-11
6.3473246e-11
7.0954593e-11
7.8956914e-11
8.7316089e-11
9.5823277e-11
1.0434608e-10
1.1347685e-10
1.1961517e-10
1.0532137e-10
-2.669561e-09
-2.0628013e-09
-2.1864649e-09
-2.9175087e-09
-3.0475926e-09
-3.0777467e-09
-2.873358e-09
-2.5196196e-09
-2.1049657e-09
-1.6909656e-09
-1.3110405e-09
-9.8092643e-10
-7.0369315e-10
-4.7663157e-10
-2.9506767e-10
-1.5369176e-10
-4.6234673e-11
4.0188168e-11
1.2006299e-10
1.7890754e-10
2.2798032e-10
2.7104224e-10
3.0400297e-10
3.3111697e-10
3.5373058e-10
3.7219911e-10
3.8650345e-10
3.9645941e-10
4.0181806e-10
4.0231866e-10
3.9771945e-10
3.8781731e-10
3.7246067e-10
3.5155777e-10
3.2508314e-10
2.9308242e-10
2.5567599e-10
2.1306166e-10
1.6551851e-10
1.1340702e-10
5.7171646e-11
-2.6568015e-12
-6.5464238e-11
-1.3061104e-10
-1.9721741e-10
-2.6449188e-10
-3.3151505e-10
-3.9730897e-10
-4.6085266e-10
-5.2109858e-10
-5.7699427e-10
-6.2750647e-10
-6.7164309e-10
-7.084604e-10
-7.3703982e-10
-7.5637595e-10
-7.6492804e-10
-7.5928971e-10
-7.4107045e-10
-6.3620478e-10
)
;
    }
}


// ************************************************************************* //
