/*--------------------------------*- C++ -*----------------------------------*\
| =========                 |                                                 |
| \\      /  F ield         | OpenFOAM: The Open Source CFD Toolbox           |
|  \\    /   O peration     | Version:  3.0.1                                 |
|   \\  /    A nd           | Web:      www.OpenFOAM.org                      |
|    \\/     M anipulation  |                                                 |
\*---------------------------------------------------------------------------*/
FoamFile
{
    version     2.0;
    format      ascii;
    class       volVectorField;
    location    "250";
    object      U;
}
// * * * * * * * * * * * * * * * * * * * * * * * * * * * * * * * * * * * * * //

dimensions      [0 1 -1 0 0 0 0];

internalField   nonuniform List<vector> 
480
(
(-0.0036626386 -9.020022e-11 -2.5777988e-11)
(-0.0036626338 1.0387317e-10 -1.769814e-12)
(-0.0036626336 1.2537479e-10 -2.7202955e-11)
(-0.0036626399 1.5664431e-12 6.0798588e-12)
(-0.0049219419 -6.9557853e-10 -2.1727105e-11)
(-0.0049219371 -2.8877654e-10 -8.1606014e-12)
(-0.0049219376 7.5902704e-10 -2.8790572e-11)
(-0.0049219427 4.9846157e-10 -3.9565984e-12)
(-0.0056318938 -2.0223054e-09 -2.3583827e-11)
(-0.0056318769 -1.5545677e-09 -8.3684329e-12)
(-0.005631877 2.135395e-09 -2.8419423e-11)
(-0.0056318955 1.8364871e-09 -5.4775904e-12)
(-0.0064112513 -3.6767922e-09 -2.5009254e-11)
(-0.0064112401 -3.3126393e-09 -7.9607528e-12)
(-0.0064112407 3.8409091e-09 -2.6968599e-11)
(-0.0064112507 3.5690445e-09 -5.8158858e-12)
(-0.0064965773 -4.2572874e-09 -2.510936e-11)
(-0.0064965718 -4.0510168e-09 -7.4497806e-12)
(-0.0064965722 4.4738577e-09 -2.4297457e-11)
(-0.0064965764 4.3090125e-09 -5.6384145e-12)
(-0.0060824054 -3.9012276e-09 -2.3669038e-11)
(-0.0060824096 -3.8546746e-09 -6.6409115e-12)
(-0.00608241 4.1814483e-09 -2.0933302e-11)
(-0.0060824042 4.1256755e-09 -4.9344062e-12)
(-0.0054558319 -2.3848732e-09 -2.1104563e-11)
(-0.0054558438 -2.4495943e-09 -5.749638e-12)
(-0.0054558441 2.6822907e-09 -1.7539697e-11)
(-0.0054558311 2.6969712e-09 -3.9672702e-12)
(-0.0047596811 -3.7518343e-10 -1.7951942e-11)
(-0.0047596952 -4.3840536e-10 -4.6591356e-12)
(-0.0047596955 6.381925e-10 -1.4348664e-11)
(-0.0047596812 6.3077245e-10 -2.9533638e-12)
(-0.0040311598 1.4421034e-09 -1.4689082e-11)
(-0.0040311721 1.4834147e-09 -3.5448245e-12)
(-0.0040311723 -1.2559784e-09 -1.1468567e-11)
(-0.0040311604 -1.3734088e-09 -2.0353303e-12)
(-0.0032614235 2.8083142e-09 -1.169825e-11)
(-0.0032614328 3.0065108e-09 -2.5700497e-12)
(-0.003261433 -2.7298207e-09 -8.9541671e-12)
(-0.0032614244 -2.9992371e-09 -1.2796715e-12)
(-0.0024285137 3.7570377e-09 -9.0740562e-12)
(-0.0024285203 4.1268205e-09 -1.7273378e-12)
(-0.0024285205 -3.804396e-09 -6.8162216e-12)
(-0.0024285146 -4.2343625e-09 -7.0385652e-13)
(-0.001511026 4.4315985e-09 -6.8658812e-12)
(-0.0015110309 4.9731014e-09 -1.0896022e-12)
(-0.0015110312 -4.6117849e-09 -5.0418726e-12)
(-0.0015110269 -5.1996188e-09 -2.8811586e-13)
(-0.00049218012 4.9817237e-09 -5.076744e-12)
(-0.00049218439 5.6962996e-09 -6.731846e-13)
(-0.00049218477 -5.2923844e-09 -3.6129284e-12)
(-0.00049218102 -6.0388737e-09 -7.762654e-15)
(0.00064039015 5.5180448e-09 -3.6704153e-12)
(0.00064038586 6.416378e-09 -3.8544029e-13)
(0.00064038536 -5.9498555e-09 -2.5013701e-12)
(0.00064038923 -6.8664275e-09 1.4282051e-13)
(0.0018964235 6.10104e-09 -2.5924803e-12)
(0.0018964189 7.2059126e-09 -1.9128365e-13)
(0.0018964182 -6.6401439e-09 -1.6846093e-12)
(0.0018964225 -7.7513842e-09 2.1159968e-13)
(0.0032850026 6.7482296e-09 -1.7849127e-12)
(0.0032849975 8.0940671e-09 -6.693934e-14)
(0.0032849967 -7.3782719e-09 -1.1083141e-12)
(0.0032850015 -8.7208735e-09 2.4345393e-13)
(0.0048160935 7.4480216e-09 -1.1930784e-12)
(0.0048160881 9.0789416e-09 8.7685405e-15)
(0.004816087 -8.1517229e-09 -6.9868983e-13)
(0.0048160922 -9.771743e-09 2.4803304e-13)
(0.0065015036 8.1731959e-09 -7.6899609e-13)
(0.0065014981 1.0140734e-08 5.1520926e-14)
(0.0065014968 -8.9335606e-09 -4.1321662e-13)
(0.0065015021 -1.0884174e-08 2.3888103e-13)
(0.008355346 8.8909385e-09 -4.721841e-13)
(0.0083553407 1.1252007e-08 7.2576428e-14)
(0.0083553392 -9.6921086e-09 -2.2000835e-13)
(0.0083553443 -1.2031687e-08 2.2062991e-13)
(0.010394168 9.5688771e-09 -2.699978e-13)
(0.010394163 1.2384098e-08 7.9835456e-14)
(0.010394161 -1.0396665e-08 -9.3886092e-14)
(0.010394166 -1.3187137e-08 1.9184027e-13)
(0.012636888 1.0177929e-08 -1.3636631e-13)
(0.012636884 1.3510258e-08 7.8785772e-14)
(0.012636881 -1.1020089e-08 -1.5244235e-14)
(0.012636886 -1.4325558e-08 1.5896623e-13)
(0.015104643 1.0693142e-08 -5.1249307e-14)
(0.01510464 1.4606586e-08 7.3075097e-14)
(0.015104637 -1.153945e-08 3.0752373e-14)
(0.015104641 -1.5424883e-08 1.2982605e-13)
(0.017820598 1.1093532e-08 2.6575369e-16)
(0.017820596 1.5651801e-08 6.5104133e-14)
(0.017820593 -1.1935743e-08 5.477999e-14)
(0.017820595 -1.6465712e-08 1.0574634e-13)
(0.020809739 1.1361634e-08 2.9125006e-14)
(0.020809738 1.6626553e-08 5.6395332e-14)
(0.020809735 -1.2193329e-08 6.4470837e-14)
(0.020809737 -1.7430479e-08 8.5307049e-14)
(0.024098665 1.1483092e-08 4.3162333e-14)
(0.024098666 1.7512706e-08 4.7825831e-14)
(0.024098662 -1.2299455e-08 6.5210297e-14)
(0.024098663 -1.8302535e-08 6.8171282e-14)
(0.027715367 1.1446417e-08 4.7879954e-14)
(0.02771537 1.8292751e-08 3.9901777e-14)
(0.027715365 -1.2243993e-08 6.1287495e-14)
(0.027715365 -1.906564e-08 5.4060548e-14)
(0.031688996 1.1242948e-08 4.7054445e-14)
(0.031689 1.8949417e-08 3.2839602e-14)
(0.031688995 -1.2019423e-08 5.4652548e-14)
(0.031688994 -1.9703571e-08 4.2577926e-14)
(0.036049615 1.086698e-08 4.3203275e-14)
(0.036049621 1.9465457e-08 2.6721014e-14)
(0.036049615 -1.1620949e-08 4.7069375e-14)
(0.036049614 -2.0199906e-08 3.3334034e-14)
(0.040827935 1.0315983e-08 3.7952746e-14)
(0.040827943 1.9823597e-08 2.1531904e-14)
(0.040827937 -1.1046726e-08 3.9549546e-14)
(0.040827934 -2.0537992e-08 2.5958478e-14)
(0.046055031 9.5908997e-09 3.2309903e-14)
(0.046055042 2.0006615e-08 1.7203057e-14)
(0.046055036 -1.0298192e-08 3.2602104e-14)
(0.046055032 -2.0701045e-08 2.0117083e-14)
(0.051762042 8.6964471e-09 2.6863549e-14)
(0.051762055 1.9997538e-08 1.3639358e-14)
(0.051762048 -9.3804001e-09 2.6462768e-14)
(0.051762043 -2.0672376e-08 1.5520094e-14)
(0.057979844 7.6414087e-09 2.1924266e-14)
(0.05797986 1.9779965e-08 1.0736171e-14)
(0.057979852 -8.3023398e-09 2.1205573e-14)
(0.057979847 -2.0435734e-08 1.1922298e-14)
(0.064738722 6.4388741e-09 1.7623636e-14)
(0.064738741 1.9338491e-08 8.3943802e-15)
(0.064738733 -7.0771987e-09 1.6809699e-14)
(0.064738726 -1.9975764e-08 9.119804e-15)
(0.072068012 5.1063937e-09 1.3988017e-14)
(0.072068034 1.8659254e-08 6.5200442e-15)
(0.072068025 -5.722543e-09 1.3201906e-14)
(0.072068018 -1.9278565e-08 6.9479603e-15)
(0.07999574 3.6660181e-09 1.0983231e-14)
(0.079995764 1.7730579e-08 5.0343458e-15)
(0.079995755 -4.2603768e-09 1.0284607e-14)
(0.079995748 -1.8332368e-08 5.2702012e-15)
(0.088548248 2.1441871e-09 8.5431598e-15)
(0.088548275 1.6543732e-08 3.8641326e-15)
(0.088548265 -2.71705e-09 7.9546961e-15)
(0.088548258 -1.7128294e-08 3.9799784e-15)
(0.09774982 5.7143844e-10 6.5904545e-15)
(0.097749849 1.5093749e-08 2.9485663e-15)
(0.097749839 -1.1229852e-09 6.1134497e-15)
(0.097749832 -1.5661209e-08 2.9920511e-15)
(0.1076223 -1.0180905e-09 5.0468156e-15)
(0.10762233 1.3380343e-08 2.2373182e-15)
(0.10762232 4.8782684e-10 4.6729792e-15)
(0.10762231 -1.3930633e-08 2.237619e-15)
(0.11818471 -2.587388e-09 3.8377542e-15)
(0.11818474 1.1408843e-08 1.6879105e-15)
(0.11818473 2.0785179e-09 3.5555571e-15)
(0.11818472 -1.1941699e-08 1.6653488e-15)
(0.1294529 -4.0975335e-09 2.8995689e-15)
(0.12945294 9.1911583e-09 1.2665659e-15)
(0.12945292 3.6103008e-09 2.6949303e-15)
(0.12945292 -9.7061135e-09 1.2329497e-15)
(0.14143919 -5.5089036e-09 2.1784437e-15)
(0.14143923 6.7467103e-09 9.4542455e-16)
(0.14143921 5.0436928e-09 2.0348175e-15)
(0.14143921 -7.243108e-09 9.0753706e-16)
(0.15415202 -6.782603e-09 1.6257439e-15)
(0.15415206 4.103325e-09 7.0121574e-16)
(0.15415205 6.3399223e-09 1.5319742e-15)
(0.15415205 -4.5803296e-09 6.6388921e-16)
(0.16759569 -7.8820894e-09 1.2064367e-15)
(0.16759573 1.2980274e-09 5.1584699e-16)
(0.16759572 7.4625511e-09 1.1494739e-15)
(0.16759572 -1.7546508e-09 4.8671477e-16)
(0.18177004 -8.7749398e-09 8.8796521e-16)
(0.18177009 -1.6222839e-09 3.7790394e-16)
(0.18177007 8.3792376e-09 8.6157128e-16)
(0.18177008 1.1871821e-09 3.5611582e-16)
(0.19667025 -9.4346875e-09 6.5030244e-16)
(0.19667029 -4.6003167e-09 2.743541e-16)
(0.19667028 9.0635641e-09 6.4503331e-16)
(0.19667028 4.1879771e-09 2.5939962e-16)
(0.21228663 -9.8426276e-09 4.7162742e-16)
(0.21228667 -7.5680569e-09 1.9779733e-16)
(0.21228666 9.4968344e-09 4.8544003e-16)
(0.21228666 7.1797605e-09 1.8710239e-16)
(0.22860449 -9.989465e-09 3.4069902e-16)
(0.22860453 -1.0446674e-08 1.4205247e-16)
(0.22860452 9.6697144e-09 3.655163e-16)
(0.22860453 1.0083715e-08 1.3438587e-16)
(0.24560407 -9.8766549e-09 2.4670017e-16)
(0.24560411 -1.3146716e-08 1.0151111e-16)
(0.2456041 9.583562e-09 2.7409213e-16)
(0.24560411 1.2810331e-08 9.6649374e-17)
(0.26326049 -9.5172512e-09 1.7960408e-16)
(0.26326053 -1.5568703e-08 7.1341874e-17)
(0.26326052 9.251265e-09 2.0495569e-16)
(0.26326053 1.5259997e-08 6.7897859e-17)
(0.28154379 -8.9360546e-09 1.3265331e-16)
(0.28154383 -1.7604297e-08 4.8305236e-17)
(0.28154381 8.6973835e-09 1.5160651e-16)
(0.28154383 1.7324168e-08 4.8244172e-17)
(0.30041903 -8.1688344e-09 9.373536e-17)
(0.30041906 -1.9138365e-08 3.4147515e-17)
(0.30041904 7.957372e-09 1.1301114e-16)
(0.30041907 1.8887425e-08 3.4726253e-17)
(0.31984645 -7.2604029e-09 6.5928648e-17)
(0.31984648 -2.0052446e-08 2.1517134e-17)
(0.31984646 7.0756633e-09 8.7761357e-17)
(0.31984648 1.9830959e-08 2.2686078e-17)
(0.33978169 -6.2613818e-09 4.0554111e-17)
(0.33978171 -2.0230602e-08 1.2873886e-17)
(0.33978169 6.1024607e-09 7.2670335e-17)
(0.33978172 2.0038453e-08 1.3099056e-17)
(0.36017609 -5.2236628e-09 2.3821651e-17)
(0.36017611 -1.9569498e-08 8.6647805e-18)
(0.36017609 5.0892474e-09 6.1461313e-17)
(0.36017612 1.9406218e-08 4.0575083e-18)
(0.38097702 -4.1947401e-09 1.2623997e-17)
(0.38097704 -1.7994811e-08 3.8190325e-18)
(0.38097701 4.0832246e-09 4.9819055e-17)
(0.38097704 1.7859708e-08 3.146624e-18)
(0.4021283 -3.2112256e-09 9.0642997e-18)
(0.40212831 -1.5483104e-08 -5.067959e-20)
(0.40212828 3.1209815e-09 3.9270635e-17)
(0.40212831 1.5375504e-08 1.998854e-18)
(0.42357063 -2.2928973e-09 9.0089567e-18)
(0.42357063 -1.2087977e-08 -5.2317326e-18)
(0.4235706 2.2224245e-09 3.0090896e-17)
(0.42357063 1.2007365e-08 1.0850453e-18)
(0.44524211 -1.4474955e-09 1.04392e-17)
(0.4452421 -8.0188479e-09 -5.996576e-18)
(0.44524208 1.3944326e-09 1.6067769e-17)
(0.44524211 7.9644551e-09 5.1329125e-18)
(0.46707877 -7.032079e-10 1.0223384e-17)
(0.46707876 -3.8767176e-09 -1.7851564e-18)
(0.46707874 6.6663048e-10 1.0021919e-17)
(0.46707877 3.8512578e-09 4.4163291e-18)
(0.48901514 -1.9956049e-10 5.8635968e-18)
(0.48901514 -1.0181842e-09 8.5536609e-19)
(0.48901513 1.8695112e-10 7.9752787e-18)
(0.48901514 1.0115744e-09 7.6017921e-18)
(-0.0036626394 3.3361464e-11 -2.0864751e-10)
(-0.0036626342 1.9853141e-10 -2.3268189e-11)
(-0.0036626341 9.8307949e-12 -4.0469789e-11)
(-0.0036626407 -8.6641694e-11 -3.8953072e-11)
(-0.0049219414 -5.2740947e-10 -2.1108921e-10)
(-0.0049219368 -1.6027636e-10 1.0745159e-11)
(-0.0049219372 6.3962985e-10 -5.9287214e-11)
(-0.004921942 4.1212889e-10 9.7184251e-13)
(-0.0056318941 -1.8545299e-09 -2.5492803e-10)
(-0.0056318767 -1.4967241e-09 -6.5203949e-12)
(-0.0056318768 2.0912477e-09 -7.5697491e-11)
(-0.0056318957 1.8111637e-09 -1.5859643e-11)
(-0.0064112492 -3.5574284e-09 -2.9990274e-10)
(-0.0064112384 -3.3147492e-09 -2.9972664e-11)
(-0.006411239 3.8736857e-09 -8.5273985e-11)
(-0.0064112484 3.5971106e-09 -4.0501224e-11)
(-0.0064965755 -4.146136e-09 -2.845447e-10)
(-0.0064965701 -4.0601741e-09 -3.9911898e-11)
(-0.0064965705 4.4861967e-09 -8.3396862e-11)
(-0.0064965746 4.3148346e-09 -4.8976825e-11)
(-0.0060824035 -3.7947662e-09 -2.3438679e-10)
(-0.0060824079 -3.8657982e-09 -3.8277091e-11)
(-0.0060824083 4.1668726e-09 -7.3669332e-11)
(-0.0060824022 4.1106779e-09 -4.6454261e-11)
(-0.0054558306 -2.2649519e-09 -1.7787146e-10)
(-0.0054558427 -2.4397937e-09 -3.1707439e-11)
(-0.0054558431 2.6173595e-09 -6.0968627e-11)
(-0.0054558298 2.6229887e-09 -3.8835865e-11)
(-0.0047596808 -2.6719552e-10 -1.2922107e-10)
(-0.004759695 -4.2175875e-10 -2.4351994e-11)
(-0.0047596952 5.508751e-10 -4.8232737e-11)
(-0.0047596809 5.163122e-10 -3.0174086e-11)
(-0.0040311601 1.5212597e-09 -9.1593345e-11)
(-0.0040311724 1.4909754e-09 -1.7822388e-11)
(-0.0040311726 -1.3430636e-09 -3.6912552e-11)
(-0.0040311607 -1.5031717e-09 -2.2339373e-11)
(-0.0032614241 2.8564586e-09 -6.4006009e-11)
(-0.0032614332 2.999528e-09 -1.2636318e-11)
(-0.0032614334 -2.8084834e-09 -2.7558335e-11)
(-0.0032614249 -3.1301734e-09 -1.6107838e-11)
(-0.0024285143 3.7793717e-09 -4.4379985e-11)
(-0.0024285208 4.1070051e-09 -8.8379167e-12)
(-0.002428521 -3.8735488e-09 -2.019531e-11)
(-0.0024285152 -4.3603531e-09 -1.1440255e-11)
(-0.0015110265 4.4354437e-09 -3.0685166e-11)
(-0.0015110314 4.9446973e-09 -6.2163402e-12)
(-0.0015110316 -4.6728387e-09 -1.4585239e-11)
(-0.0015110274 -5.3185346e-09 -8.0276761e-12)
(-0.00049218061 4.9739096e-09 -2.1218379e-11)
(-0.00049218481 5.6639678e-09 -4.4234499e-12)
(-0.00049218519 -5.347154e-09 -1.0394134e-11)
(-0.00049218146 -6.1505231e-09 -5.5672832e-12)
(0.00064038971 5.5039634e-09 -1.4682767e-11)
(0.00064038546 6.3841496e-09 -3.1571668e-12)
(0.00064038496 -5.9996396e-09 -7.3090319e-12)
(0.00064038883 -6.9713752e-09 -3.833321e-12)
(0.0018964231 6.0845793e-09 -1.0158577e-11)
(0.0018964185 7.176664e-09 -2.2471059e-12)
(0.0018964178 -6.6854758e-09 -5.0872765e-12)
(0.0018964221 -7.8496158e-09 -2.6591746e-12)
(0.0032850022 6.7319762e-09 -7.012878e-12)
(0.0032849971 8.0695966e-09 -1.5830883e-12)
(0.0032849963 -7.419116e-09 -3.5100394e-12)
(0.0032850011 -8.8119937e-09 -1.8250331e-12)
(0.0048160929 7.4335264e-09 -4.8181977e-12)
(0.0048160876 9.0602115e-09 -1.0948686e-12)
(0.0048160865 -8.1877889e-09 -2.3859063e-12)
(0.0048160917 -9.8558114e-09 -1.2044941e-12)
(0.006501503 8.161252e-09 -3.2865673e-12)
(0.0065014976 1.0128121e-08 -7.3530794e-13)
(0.0065014962 -8.9645318e-09 -1.591035e-12)
(0.0065015015 -1.096149e-08 -7.5430918e-13)
(0.0083553453 8.8818027e-09 -2.2212667e-12)
(0.0083553401 1.1245506e-08 -4.7438743e-13)
(0.0083553385 -9.7177683e-09 -1.0367408e-12)
(0.0083553437 -1.2102665e-08 -4.5299136e-13)
(0.010394167 9.5624449e-09 -1.4837208e-12)
(0.010394162 1.2383475e-08 -2.8914453e-13)
(0.01039416 -1.0416954e-08 -6.5589642e-13)
(0.010394165 -1.32522e-08 -2.517291e-13)
(0.012636887 1.0173855e-08 -9.773829e-13)
(0.012636883 1.3515137e-08 -1.6118638e-13)
(0.012636881 -1.103511e-08 -3.9839133e-13)
(0.012636885 -1.4385073e-08 -1.2130503e-13)
(0.015104642 1.0690915e-08 -6.3264239e-13)
(0.015104639 1.4616509e-08 -7.584859e-14)
(0.015104636 -1.1549442e-08 -2.2810719e-13)
(0.01510464 -1.5479278e-08 -3.8007702e-14)
(0.017820597 1.1092558e-08 -4.0113104e-13)
(0.017820595 1.5666255e-08 -2.1451251e-14)
(0.017820592 -1.1941036e-08 -1.183444e-13)
(0.017820595 -1.6515302e-08 7.9910054e-15)
(0.020809738 1.1361278e-08 -2.4763751e-13)
(0.020809737 1.6644992e-08 1.115826e-14)
(0.020809734 -1.2194302e-08 -5.0126472e-14)
(0.020809736 -1.7475379e-08 3.2846895e-14)
(0.024098664 1.1482703e-08 -1.4744849e-13)
(0.024098665 1.753456e-08 2.888726e-14)
(0.024098661 -1.2296526e-08 -1.0111671e-14)
(0.024098662 -1.8342824e-08 4.4812647e-14)
(0.027715366 1.1445365e-08 -8.324563e-14)
(0.027715369 1.8317431e-08 3.6883365e-14)
(0.027715364 -1.2237614e-08 1.2151598e-14)
(0.027715364 -1.9101363e-08 4.8614303e-14)
(0.031688995 1.1240648e-08 -4.3020782e-14)
(0.031688999 1.8976324e-08 3.8776244e-14)
(0.031688994 -1.2010028e-08 2.2673379e-14)
(0.031688993 -1.9734723e-08 4.7488148e-14)
(0.036049613 1.086291e-08 -1.8563607e-14)
(0.03604962 1.9493982e-08 3.7094089e-14)
(0.036049614 -1.160894e-08 2.6439558e-14)
(0.036049612 -2.0226436e-08 4.362408e-14)
(0.040827933 1.0309702e-08 -4.3121916e-15)
(0.040827942 1.9853124e-08 3.353653e-14)
(0.040827936 -1.1032502e-08 2.6437565e-14)
(0.040827933 -2.0559803e-08 3.8457977e-14)
(0.04605503 9.5820553e-09 3.4650355e-15)
(0.046055041 2.003652e-08 2.9189897e-14)
(0.046055034 -1.0282148e-08 2.4434864e-14)
(0.04605503 -2.0717999e-08 3.2907935e-14)
(0.05176204 8.6847829e-09 7.2388094e-15)
(0.051762054 2.0027193e-08 2.4715711e-14)
(0.051762047 -9.362928e-09 2.1515086e-14)
(0.051762042 -2.0684304e-08 2.7526541e-14)
(0.057979843 7.6267703e-09 8.618872e-15)
(0.057979859 1.9808735e-08 2.0489792e-14)
(0.057979851 -8.2838289e-09 1.8324496e-14)
(0.057979846 -2.0442443e-08 2.2613755e-14)
(0.064738721 6.421211e-09 8.6381623e-15)
(0.06473874 1.9365738e-08 1.6703499e-14)
(0.064738731 -7.0580402e-09 1.5229623e-14)
(0.064738725 -1.9977043e-08 1.8304139e-14)
(0.072068011 5.0857607e-09 7.9478519e-15)
(0.072068032 1.868434e-08 1.3430448e-14)
(0.072068024 -5.7031331e-09 1.2417562e-14)
(0.072068017 -1.92742e-08 1.4632562e-14)
(0.079995739 3.6425741e-09 6.9445638e-15)
(0.079995763 1.7752868e-08 1.0673658e-14)
(0.079995753 -4.2411198e-09 9.9683901e-15)
(0.079995747 -1.8322144e-08 1.1573819e-14)
(0.088548247 2.1181927e-09 5.8560909e-15)
(0.088548274 1.6562598e-08 8.3998203e-15)
(0.088548264 -2.6983595e-09 7.8993318e-15)
(0.088548257 -1.7112014e-08 9.0687614e-15)
(0.097749818 5.4325184e-10 4.8140599e-15)
(0.097749848 1.5108582e-08 6.5527142e-15)
(0.097749838 -1.1052823e-09 6.1897673e-15)
(0.097749831 -1.56387e-08 7.0477857e-15)
(0.1076223 -1.0480203e-09 3.8765692e-15)
(0.10762233 1.339056e-08 5.0728552e-15)
(0.10762232 5.0410937e-10 4.8070133e-15)
(0.10762231 -1.390176e-08 5.4369969e-15)
(0.11818471 -2.6185301e-09 3.0693827e-15)
(0.11818474 1.14139e-08 3.9009668e-15)
(0.11818473 2.092944e-09 3.7008155e-15)
(0.11818472 -1.1906377e-08 4.1661607e-15)
(0.1294529 -4.1292866e-09 2.3966104e-15)
(0.12945293 9.1905596e-09 2.9812348e-15)
(0.12945292 3.6224409e-09 2.8276687e-15)
(0.12945292 -9.6643229e-09 3.1737473e-15)
(0.14143919 -5.5406107e-09 1.8500492e-15)
(0.14143922 6.7400287e-09 2.2647817e-15)
(0.14143921 5.053127e-09 2.147113e-15)
(0.14143921 -7.194908e-09 2.4042635e-15)
(0.15415202 -6.8135699e-09 1.4159601e-15)
(0.15415206 4.0902162e-09 1.7124829e-15)
(0.15415205 6.3462535e-09 1.6171511e-15)
(0.15415205 -4.5258719e-09 1.8135298e-15)
(0.16759569 -7.9116053e-09 1.0770185e-15)
(0.16759573 1.2782484e-09 1.2947118e-15)
(0.16759572 7.4654186e-09 1.2091513e-15)
(0.16759572 -1.6941898e-09 1.3592476e-15)
(0.18177004 -8.8023029e-09 8.1401551e-16)
(0.18177009 -1.648856e-09 9.7630246e-16)
(0.18177007 8.3783321e-09 9.0084499e-16)
(0.18177008 1.2532561e-09 1.0128514e-15)
(0.19667025 -9.4592335e-09 6.1266573e-16)
(0.19667029 -4.6336645e-09 7.3639675e-16)
(0.19667028 9.0586456e-09 6.6998066e-16)
(0.19667028 4.2591354e-09 7.4740919e-16)
(0.21228663 -9.8637612e-09 4.5862911e-16)
(0.21228667 -7.6080022e-09 5.5927581e-16)
(0.21228666 9.4877514e-09 4.9470363e-16)
(0.21228666 7.2553325e-09 5.4719664e-16)
(0.22860449 -1.0006696e-08 3.4230059e-16)
(0.22860453 -1.0492857e-08 4.2940996e-16)
(0.22860452 9.6564244e-09 3.633138e-16)
(0.22860453 1.0162856e-08 3.9443358e-16)
(0.24560407 -9.8896343e-09 2.5665139e-16)
(0.24560412 -1.3198576e-08 3.3168063e-16)
(0.2456041 9.5661532e-09 2.6445313e-16)
(0.24560411 1.2892015e-08 2.8136259e-16)
(0.26326049 -9.5258105e-09 1.9429603e-16)
(0.26326053 -1.5625453e-08 2.5723208e-16)
(0.26326052 9.2299788e-09 1.9000609e-16)
(0.26326053 1.5343004e-08 1.9960326e-16)
(0.28154379 -8.9402406e-09 1.4559306e-16)
(0.28154383 -1.7664908e-08 1.9649594e-16)
(0.28154381 8.6726373e-09 1.3870936e-16)
(0.28154383 1.7407073e-08 1.4201817e-16)
(0.30041903 -8.1689383e-09 1.0501839e-16)
(0.30041906 -1.9201541e-08 1.4946726e-16)
(0.30041905 7.9297811e-09 1.0525746e-16)
(0.30041907 1.8968591e-08 1.0115437e-16)
(0.31984645 -7.2569766e-09 7.2583447e-17)
(0.31984648 -2.0116603e-08 1.1580748e-16)
(0.31984646 7.0460596e-09 8.2293726e-17)
(0.31984648 1.9908532e-08 6.8434382e-17)
(0.33978169 -6.2552318e-09 4.4804246e-17)
(0.33978172 -2.0293858e-08 9.6569403e-17)
(0.33978169 6.071904e-09 6.5744706e-17)
(0.33978172 2.0110372e-08 4.0245188e-17)
(0.36017609 -5.2158052e-09 2.6835829e-17)
(0.36017611 -1.9629679e-08 8.4541247e-17)
(0.36017609 5.0590245e-09 5.1987718e-17)
(0.36017612 1.9470239e-08 1.3960206e-17)
(0.38097702 -4.1862907e-09 1.6448294e-17)
(0.38097704 -1.8049486e-08 7.5774875e-17)
(0.38097701 4.0548349e-09 4.1463749e-17)
(0.38097704 1.7913466e-08 -7.1817656e-18)
(0.4021283 -3.2032209e-09 1.3111637e-17)
(0.40212831 -1.5529668e-08 6.4822352e-17)
(0.40212828 3.0960674e-09 2.8667465e-17)
(0.40212831 1.5416629e-08 -1.9116996e-17)
(0.42357063 -2.2861268e-09 1.243104e-17)
(0.42357063 -1.2124146e-08 6.4991869e-17)
(0.4235706 2.2025369e-09 1.5492026e-17)
(0.42357063 1.2033722e-08 -2.9300703e-17)
(0.44524211 -1.4426883e-09 1.6867022e-17)
(0.4452421 -8.044407e-09 6.2598708e-17)
(0.44524208 1.3814985e-09 1.2780972e-17)
(0.44524211 7.9765457e-09 -3.5220515e-17)
(0.46707877 -6.9867659e-10 2.8054207e-17)
(0.46707876 -3.8969428e-09 5.919521e-17)
(0.46707874 6.6210668e-10 1.3335205e-17)
(0.46707877 3.8505654e-09 -2.0669176e-17)
(0.48901514 -1.9812969e-10 3.5921361e-17)
(0.48901514 -1.0250384e-09 4.689283e-17)
(0.48901513 1.8729278e-10 1.4288127e-17)
(0.48901514 1.0097577e-09 -3.8666538e-18)
)
;

boundaryField
{
    movingWall
    {
        type            fixedValue;
        value           uniform (0.5 0 0);
    }
    CPLReceiveMD
    {
        type            fixedValue;
        value           uniform (0.024611309 0 0);
    }
    streamwiseIn
    {
        type            cyclic;
    }
    streamwiseOut
    {
        type            cyclic;
    }
    front
    {
        type            cyclic;
    }
    back
    {
        type            cyclic;
    }
    procBoundary1to0
    {
        type            processor;
        value           nonuniform List<vector> 
240
(
(-0.0036626394 4.8585629e-11 2.0864751e-10)
(-0.0036626342 1.9366006e-10 2.3268189e-11)
(-0.0036626341 2.3053088e-11 4.0469789e-11)
(-0.0036626407 -8.8292295e-11 3.8953072e-11)
(-0.0049219414 -5.036516e-10 2.1108921e-10)
(-0.0049219368 -1.6584821e-10 -1.0745159e-11)
(-0.0049219372 6.6038096e-10 5.9287214e-11)
(-0.0049219421 4.1446809e-10 -9.7184251e-13)
(-0.0056318941 -1.8385646e-09 2.5492803e-10)
(-0.0056318767 -1.5045732e-09 6.5203949e-12)
(-0.0056318768 2.0903402e-09 7.5697491e-11)
(-0.0056318957 1.8140229e-09 1.5859643e-11)
(-0.0064112492 -3.5515854e-09 2.9990274e-10)
(-0.0064112384 -3.3220958e-09 2.9972664e-11)
(-0.006411239 3.8586531e-09 8.5273985e-11)
(-0.0064112484 3.5961623e-09 4.0501224e-11)
(-0.0064965755 -4.1505912e-09 2.845447e-10)
(-0.0064965701 -4.0671341e-09 3.9911898e-11)
(-0.0064965705 4.463226e-09 8.3396862e-11)
(-0.0064965746 4.3103441e-09 4.8976825e-11)
(-0.0060824035 -3.8096666e-09 2.3438679e-10)
(-0.0060824079 -3.872944e-09 3.8277091e-11)
(-0.0060824083 4.1409682e-09 7.3669332e-11)
(-0.0060824022 4.1038535e-09 4.6454261e-11)
(-0.0054558306 -2.2869076e-09 1.7787146e-10)
(-0.0054558427 -2.4475556e-09 3.1707439e-11)
(-0.0054558431 2.5918963e-09 6.0968627e-11)
(-0.0054558298 2.6152774e-09 3.8835865e-11)
(-0.0047596808 -2.9220856e-10 1.2922107e-10)
(-0.004759695 -4.3030567e-10 2.4351994e-11)
(-0.0047596952 5.271985e-10 4.8232737e-11)
(-0.0047596809 5.0885923e-10 3.0174086e-11)
(-0.0040311601 1.4966826e-09 9.1593345e-11)
(-0.0040311724 1.4828476e-09 1.7822388e-11)
(-0.0040311726 -1.3642388e-09 3.6912552e-11)
(-0.0040311607 -1.5096467e-09 2.2339373e-11)
(-0.0032614241 2.8342897e-09 6.4006009e-11)
(-0.0032614332 2.9924101e-09 1.2636318e-11)
(-0.0032614334 -2.8268322e-09 2.7558335e-11)
(-0.0032614249 -3.1353613e-09 1.6107838e-11)
(-0.0024285143 3.7602386e-09 4.4379985e-11)
(-0.0024285208 4.1011692e-09 8.8379167e-12)
(-0.002428521 -3.8890316e-09 2.019531e-11)
(-0.0024285152 -4.3642509e-09 1.1440255e-11)
(-0.0015110265 4.4195895e-09 3.0685166e-11)
(-0.0015110314 4.940519e-09 6.2163402e-12)
(-0.0015110317 -4.685546e-09 1.4585239e-11)
(-0.0015110274 -5.3212966e-09 8.0276761e-12)
(-0.00049218061 4.9612229e-09 2.1218379e-11)
(-0.00049218481 5.6611625e-09 4.4234499e-12)
(-0.00049218519 -5.3572479e-09 1.0394134e-11)
(-0.00049218146 -6.15225e-09 5.5672832e-12)
(0.00064038971 5.4940952e-09 1.4682767e-11)
(0.00064038546 6.3822221e-09 3.1571668e-12)
(0.00064038495 -6.0073083e-09 7.3090319e-12)
(0.00064038883 -6.9722666e-09 3.833321e-12)
(0.0018964231 6.0770881e-09 1.0158577e-11)
(0.0018964185 7.1753866e-09 2.2471059e-12)
(0.0018964178 -6.6910184e-09 5.0872765e-12)
(0.0018964221 -7.8500335e-09 2.6591746e-12)
(0.0032850022 6.7264166e-09 7.012878e-12)
(0.0032849971 8.068793e-09 1.5830883e-12)
(0.0032849963 -7.4230389e-09 3.5100394e-12)
(0.0032850011 -8.8121518e-09 1.8250331e-12)
(0.0048160929 7.429491e-09 4.8181977e-12)
(0.0048160876 9.0597353e-09 1.0948686e-12)
(0.0048160865 -8.1905539e-09 2.3859063e-12)
(0.0048160917 -9.855802e-09 1.2044941e-12)
(0.006501503 8.1583891e-09 3.2865673e-12)
(0.0065014976 1.0127864e-08 7.3530794e-13)
(0.0065014962 -8.966435e-09 1.591035e-12)
(0.0065015015 -1.0961387e-08 7.5430918e-13)
(0.0083553453 8.8798214e-09 2.2212667e-12)
(0.0083553401 1.1245392e-08 4.7438743e-13)
(0.0083553385 -9.7190371e-09 1.0367408e-12)
(0.0083553437 -1.2102482e-08 4.5299136e-13)
(0.010394167 9.5611118e-09 1.4837208e-12)
(0.010394162 1.2383449e-08 2.8914453e-13)
(0.01039416 -1.0417767e-08 6.5589642e-13)
(0.010394165 -1.3251957e-08 2.517291e-13)
(0.012636887 1.0172986e-08 9.773829e-13)
(0.012636883 1.3515164e-08 1.6118638e-13)
(0.012636881 -1.1035605e-08 3.9839133e-13)
(0.012636885 -1.4384828e-08 1.2130503e-13)
(0.015104642 1.0690372e-08 6.3264239e-13)
(0.015104639 1.4616563e-08 7.584859e-14)
(0.015104636 -1.154972e-08 2.2810719e-13)
(0.01510464 -1.5479067e-08 3.8007702e-14)
(0.017820597 1.1092239e-08 4.0113104e-13)
(0.017820595 1.5666321e-08 2.1451251e-14)
(0.017820592 -1.194117e-08 1.183444e-13)
(0.017820595 -1.6515125e-08 -7.9910054e-15)
(0.020809738 1.1361107e-08 2.4763751e-13)
(0.020809737 1.6645061e-08 -1.115826e-14)
(0.020809734 -1.2194344e-08 5.0126472e-14)
(0.020809736 -1.747523e-08 -3.2846895e-14)
(0.024098664 1.1482629e-08 1.4744849e-13)
(0.024098665 1.7534625e-08 -2.888726e-14)
(0.024098661 -1.2296514e-08 1.0111671e-14)
(0.024098662 -1.83427e-08 -4.4812647e-14)
(0.027715366 1.1445349e-08 8.324563e-14)
(0.027715369 1.8317491e-08 -3.6883365e-14)
(0.027715364 -1.2237572e-08 -1.2151598e-14)
(0.027715364 -1.9101261e-08 -4.8614303e-14)
(0.031688995 1.1240666e-08 4.3020782e-14)
(0.031688999 1.8976376e-08 -3.8776244e-14)
(0.031688994 -1.2009972e-08 -2.2673379e-14)
(0.031688993 -1.9734641e-08 -4.7488148e-14)
(0.036049613 1.0862946e-08 1.8563607e-14)
(0.03604962 1.9494027e-08 -3.7094089e-14)
(0.036049614 -1.160888e-08 -2.6439558e-14)
(0.036049612 -2.022637e-08 -4.362408e-14)
(0.040827933 1.0309746e-08 4.3121916e-15)
(0.040827942 1.9853161e-08 -3.353653e-14)
(0.040827936 -1.1032445e-08 -2.6437565e-14)
(0.040827933 -2.055975e-08 -3.8457977e-14)
(0.04605503 9.5820992e-09 -3.4650355e-15)
(0.046055041 2.0036551e-08 -2.9189897e-14)
(0.046055034 -1.0282096e-08 -2.4434864e-14)
(0.04605503 -2.0717958e-08 -3.2907935e-14)
(0.05176204 8.684824e-09 -7.2388094e-15)
(0.051762054 2.0027218e-08 -2.4715711e-14)
(0.051762047 -9.3628828e-09 -2.1515086e-14)
(0.051762042 -2.0684272e-08 -2.7526541e-14)
(0.057979843 7.6268069e-09 -8.618872e-15)
(0.057979859 1.9808755e-08 -2.0489792e-14)
(0.057979851 -8.2837906e-09 -1.8324496e-14)
(0.057979846 -2.0442418e-08 -2.2613755e-14)
(0.064738721 6.4212425e-09 -8.6381623e-15)
(0.06473874 1.9365755e-08 -1.6703499e-14)
(0.064738731 -7.0580084e-09 -1.5229623e-14)
(0.064738725 -1.9977024e-08 -1.8304139e-14)
(0.072068011 5.085787e-09 -7.9478519e-15)
(0.072068032 1.8684353e-08 -1.3430448e-14)
(0.072068024 -5.7031072e-09 -1.2417562e-14)
(0.072068017 -1.9274184e-08 -1.4632562e-14)
(0.079995739 3.6425957e-09 -6.9445638e-15)
(0.079995763 1.7752879e-08 -1.0673658e-14)
(0.079995753 -4.241099e-09 -9.9683901e-15)
(0.079995747 -1.8322133e-08 -1.1573819e-14)
(0.088548247 2.1182101e-09 -5.8560909e-15)
(0.088548274 1.6562606e-08 -8.3998203e-15)
(0.088548264 -2.6983429e-09 -7.8993318e-15)
(0.088548257 -1.7112005e-08 -9.0687615e-15)
(0.097749818 5.432657e-10 -4.8140599e-15)
(0.097749848 1.5108589e-08 -6.5527142e-15)
(0.097749838 -1.1052693e-09 -6.1897673e-15)
(0.097749831 -1.5638693e-08 -7.0477857e-15)
(0.1076223 -1.0480094e-09 -3.8765692e-15)
(0.10762233 1.3390565e-08 -5.0728552e-15)
(0.10762232 5.0411952e-10 -4.8070133e-15)
(0.10762231 -1.3901755e-08 -5.436997e-15)
(0.11818471 -2.6185216e-09 -3.0693827e-15)
(0.11818474 1.1413904e-08 -3.9009669e-15)
(0.11818473 2.0929518e-09 -3.7008155e-15)
(0.11818472 -1.1906373e-08 -4.1661608e-15)
(0.1294529 -4.12928e-09 -2.3966104e-15)
(0.12945293 9.1905625e-09 -2.9812348e-15)
(0.12945292 3.6224469e-09 -2.8276687e-15)
(0.12945292 -9.6643199e-09 -3.1737473e-15)
(0.14143919 -5.5406057e-09 -1.8500493e-15)
(0.14143922 6.740031e-09 -2.2647817e-15)
(0.14143921 5.0531316e-09 -2.147113e-15)
(0.14143921 -7.1949057e-09 -2.4042635e-15)
(0.15415202 -6.813566e-09 -1.4159601e-15)
(0.15415206 4.0902179e-09 -1.7124829e-15)
(0.15415205 6.346257e-09 -1.6171511e-15)
(0.15415205 -4.5258702e-09 -1.8135298e-15)
(0.16759569 -7.9116023e-09 -1.0770185e-15)
(0.16759573 1.2782497e-09 -1.2947118e-15)
(0.16759572 7.4654213e-09 -1.2091513e-15)
(0.16759572 -1.6941886e-09 -1.3592476e-15)
(0.18177004 -8.8023007e-09 -8.1401552e-16)
(0.18177009 -1.6488551e-09 -9.7630246e-16)
(0.18177007 8.3783341e-09 -9.00845e-16)
(0.18177008 1.253257e-09 -1.0128515e-15)
(0.19667025 -9.4592318e-09 -6.1266574e-16)
(0.19667029 -4.6336638e-09 -7.3639676e-16)
(0.19667028 9.0586471e-09 -6.6998066e-16)
(0.19667028 4.2591361e-09 -7.474092e-16)
(0.21228663 -9.86376e-09 -4.5862912e-16)
(0.21228667 -7.6080017e-09 -5.5927582e-16)
(0.21228666 9.4877525e-09 -4.9470364e-16)
(0.21228666 7.255333e-09 -5.4719665e-16)
(0.22860449 -1.0006695e-08 -3.4230059e-16)
(0.22860453 -1.0492857e-08 -4.2940996e-16)