/*--------------------------------*- C++ -*----------------------------------*\
| =========                 |                                                 |
| \\      /  F ield         | OpenFOAM: The Open Source CFD Toolbox           |
|  \\    /   O peration     | Version:  3.0.x                                 |
|   \\  /    A nd           | Web:      www.OpenFOAM.org                      |
|    \\/     M anipulation  |                                                 |
\*---------------------------------------------------------------------------*/
FoamFile
{
    version     2.0;
    format      ascii;
    class       volScalarField;
    location    "100";
    object      sigmaxz;
}
// * * * * * * * * * * * * * * * * * * * * * * * * * * * * * * * * * * * * * //

dimensions      [0 2 -2 0 0 0 0];

internalField   nonuniform List<scalar> 
960
(
-6.4813264e-12
2.9382685e-11
6.4813258e-12
-2.9382686e-11
-7.958259e-12
1.2907397e-11
7.9582584e-12
-1.2907398e-11
-8.0738141e-12
1.076701e-11
8.0738141e-12
-2.7410412e-11
-7.5506772e-12
2.4849774e-11
2.4194079e-11
-2.4849774e-11
-6.3866245e-12
2.2593585e-11
2.3030026e-11
-5.950184e-12
-2.177749e-11
2.0836653e-11
5.1340889e-12
-4.1932512e-12
-8.9945755e-12
6.2158425e-12
8.9945755e-12
-4.5515024e-12
-6.3619787e-12
3.6240242e-12
6.3619787e-12
-3.6240242e-12
-3.925504e-12
2.9838267e-12
3.9255041e-12
-2.9838267e-12
-3.341785e-12
8.8350334e-13
3.341785e-12
-2.5478434e-12
-2.9037156e-12
2.2540435e-12
2.9037156e-12
-5.8970333e-13
-9.0329309e-13
3.9169886e-13
9.0329309e-13
-3.916989e-13
-6.4632621e-13
2.5899849e-13
6.4632621e-13
-2.5899845e-13
-2.1164906e-12
1.7003257e-13
2.1164906e-12
-1.7003257e-13
-3.0630278e-13
1.1004546e-13
3.0630278e-13
-1.1004542e-13
-2.0766016e-13
1.7337552e-12
2.0766016e-13
-6.9414989e-14
-1.3793829e-13
4.1503561e-14
1.8022784e-12
-4.1503561e-14
-9.0115821e-14
2.4061363e-14
9.0115821e-14
-2.4061345e-14
-5.8282273e-14
1.2271468e-14
5.8282273e-14
-1.2271449e-14
-3.716626e-14
4.9254818e-15
3.716626e-14
-4.9254454e-15
-2.3355789e-14
9.9386165e-16
2.3355789e-14
-9.9382527e-16
-1.4413451e-14
-1.0668933e-15
1.4413451e-14
1.0668933e-15
-8.6838407e-15
-2.0615958e-15
8.6838407e-15
2.0616322e-15
-5.0624854e-15
-2.4193755e-15
5.0625218e-15
2.4194119e-15
-2.8102205e-15
-2.4122932e-15
2.8102205e-15
2.412366e-15
-1.4373701e-15
-2.2129078e-15
1.4373701e-15
2.2129806e-15
-6.2128952e-16
-1.9278496e-15
6.2121677e-16
1.9279951e-15
-1.5626543e-16
-1.6200641e-15
1.5626543e-16
1.6202096e-15
9.4671379e-17
-1.3255098e-15
-9.4671379e-17
1.3255098e-15
2.1508574e-16
-1.0615863e-15
-2.1537675e-16
1.0618773e-15
2.5897709e-16
-8.3612533e-16
-2.592681e-16
8.3612533e-16
2.6131054e-16
-6.4912861e-16
-2.6160155e-16
6.4912861e-16
2.4142274e-16
-4.9781551e-16
-2.4142274e-16
4.9781551e-16
2.1272199e-16
-3.7578309e-16
-2.1213997e-16
3.7578309e-16
1.8019335e-16
-2.7963124e-16
-1.8019335e-16
2.8079527e-16
1.4949711e-16
-2.0694753e-16
-1.4949711e-16
2.0694753e-16
1.2181979e-16
-1.5143762e-16
-1.2181979e-16
1.5143762e-16
9.7955047e-17
-1.0979551e-16
-9.6791013e-17
1.0979551e-16
7.9283946e-17
-7.7682366e-17
-7.8119912e-17
7.88464e-17
6.2002116e-17
-5.6182483e-17
-6.2002116e-17
5.6182483e-17
4.94138e-17
-3.7292496e-17
-4.94138e-17
3.9620564e-17
3.9266549e-17
-2.537654e-17
-3.9266549e-17
2.7704608e-17
3.0865108e-17
-1.9998275e-17
-3.0865108e-17
2.4654411e-17
2.3662693e-17
-1.4791444e-17
-2.3662693e-17
1.4791444e-17
1.763088e-17
-6.5700398e-18
-1.763088e-17
1.1226176e-17
1.7211684e-17
-9.4529311e-18
-1.2555548e-17
9.4529311e-18
8.4763482e-18
-8.2177677e-18
-8.4763482e-18
8.2177677e-18
5.8123162e-18
2.8097165e-18
-5.8123162e-18
6.5025553e-18
5.0016585e-18
-4.3944538e-18
-5.0016585e-18
4.3944538e-18
4.4445941e-18
6.8586317e-18
-4.4445941e-18
2.4536401e-18
4.5208417e-18
-1.5943505e-18
-4.5208417e-18
1.5943505e-18
2.6217114e-18
8.795273e-18
-2.6217114e-18
5.1699881e-19
1.8312155e-17
1.6075241e-18
-1.8312155e-17
-1.6075241e-18
-3.7448141e-18
2.3389614e-17
3.7448141e-18
-4.7650701e-18
-4.1567867e-18
6.5176472e-18
2.278133e-17
-6.5176472e-18
-4.6975456e-18
5.8581599e-18
4.6975456e-18
-5.8581599e-18
-4.2274553e-18
6.0972697e-18
4.2274553e-18
-6.0972697e-18
-1.4466193e-18
2.7240582e-17
1.4466193e-18
1.0008505e-17
1.4458519e-18
8.001776e-18
-1.4458519e-18
-8.001776e-18
2.1236907e-18
2.1099705e-17
-2.1236907e-18
-2.475161e-18
9.553241e-12
-2.0238423e-10
-2.6196642e-11
2.0238423e-10
1.1620475e-11
-3.7207264e-10
-1.1620475e-11
3.7207264e-10
2.6942936e-11
-3.3927632e-10
-2.6942936e-11
3.3927632e-10
8.4716814e-12
-2.6437766e-10
-8.4716811e-12
2.6437766e-10
6.5444769e-12
-1.9103066e-10
-6.5444767e-12
1.7438726e-10
4.8388942e-12
-1.2594688e-10
-4.8388942e-12
1.2594688e-10
5.1393043e-12
-7.5589686e-11
-8.4679846e-12
7.5589686e-11
5.7930221e-12
-4.6337776e-11
-5.7930221e-12
4.6337776e-11
3.3938755e-12
-2.9094384e-11
-3.3938755e-12
2.9094384e-11
2.8637051e-12
-1.6959541e-11
-2.8637051e-12
1.6959541e-11
8.2918292e-13
-1.0295262e-11
-8.2918292e-13
1.0295262e-11
5.7065297e-13
-6.600903e-12
-2.2349931e-12
6.600903e-12
2.0549155e-12
-3.6948751e-12
-3.9057536e-13
3.6948751e-12
2.6679539e-13
-2.9298508e-12
-2.6679539e-13
2.9298508e-12
1.7748174e-13
-2.4549268e-12
-1.8418219e-12
2.4549269e-12
1.0997111e-13
-4.9321559e-13
-1.0997111e-13
2.1575557e-12
6.9068452e-14
-1.9695118e-12
-6.9068452e-14
3.0517161e-13
4.3966924e-14
-1.8633235e-13
-4.3966924e-14
1.8633235e-13
2.7697483e-14
-1.1099876e-13
-2.7697483e-14
1.1099876e-13
1.7008491e-14
-6.4533341e-14
-1.7008491e-14
6.4533341e-14
1.0061835e-14
-3.6828253e-14
-1.0061799e-14
3.6828253e-14
5.6941737e-15
-2.0269586e-14
-5.6941737e-15
2.0269549e-14
3.0127053e-15
-1.0489424e-14
-3.0127053e-15
1.0489387e-14
1.409976e-15
-4.8542342e-15
-1.409976e-15
4.8541978e-15
4.8991517e-16
-1.7242659e-15
-4.8991517e-16
1.7241931e-15
-6.6340598e-18
-8.3259801e-17
6.706812e-18
8.3187049e-17
-2.5349898e-16
6.942367e-16
2.5357173e-16
-6.9430945e-16
-3.4922683e-16
9.9002442e-16
3.4922683e-16
-9.9002442e-16
-3.6752791e-16
1.0299702e-15
3.6752791e-16
-1.0299702e-15
-3.4224659e-16
9.4578293e-16
3.425376e-16
-9.4578293e-16
-2.9749248e-16
8.1331809e-16
2.9778349e-16
-8.1331809e-16
-2.479484e-16
6.7057763e-16
2.4823941e-16
-6.7057763e-16
-2.0078566e-16
5.3775513e-16
2.0136768e-16
-5.3717311e-16
-1.5975269e-16
4.2123451e-16
1.5917067e-16
-4.2123451e-16
-1.2464493e-16
3.2474422e-16
1.2406291e-16
-3.2474422e-16
-9.5500836e-17
2.4747373e-16
9.5500836e-17
-2.4747373e-16
-7.2784923e-17
1.8699794e-16
7.2784923e-17
-1.8699794e-16
-5.6302125e-17
1.4021517e-16
5.5138091e-17
-1.4021517e-16
-4.3059969e-17
1.0438786e-16
4.1895935e-17
-1.0438786e-16
-3.208029e-17
7.7342319e-17
3.208029e-17
-7.7342319e-17
-2.4935094e-17
5.6914009e-17
2.4935094e-17
-5.6914009e-17
-1.7328239e-17
4.1376628e-17
1.9656307e-17
-4.1376628e-17
-1.6080056e-17
2.9325207e-17
1.6080056e-17
-2.9325207e-17
-1.3474981e-17
2.0689213e-17
1.3474981e-17
-2.0689213e-17
-1.1567014e-17
1.4317453e-17
1.1567014e-17
-1.4317453e-17
-1.0683699e-17
9.6866427e-18
1.0683699e-17
-9.6866427e-18
-1.0489564e-17
6.7502574e-18
1.0489564e-17
-6.7502574e-18
-1.0128948e-17
4.8012568e-18
1.0128948e-17
-4.8012568e-18
-1.1034865e-17
3.7342983e-18
1.1034865e-17
-3.7342983e-18
-1.1224844e-17
3.5803335e-18
1.1224844e-17
-3.5803335e-18
-1.1525446e-17
2.9867949e-18
1.1525446e-17
-2.9867949e-18
-1.1270146e-17
3.5076085e-18
1.1270146e-17
-3.5076085e-18
-1.150659e-17
2.1712349e-17
1.150659e-17
-3.0878058e-18
-1.1887038e-17
3.1133042e-18
1.1887038e-17
-3.1133042e-18
-1.2907486e-17
3.8362333e-18
1.2907486e-17
-3.8362333e-18
-1.170391e-17
2.4480771e-17
1.170391e-17
-5.8562275e-18
-1.275038e-17
8.4113841e-18
1.275038e-17
-8.4113841e-18
-1.3316771e-17
9.6330792e-18
1.3316771e-17
-2.8257623e-17
-9.7199684e-18
1.0154049e-17
9.7199684e-18
-1.0154049e-17
-4.3394738e-18
9.3820179e-18
4.3394738e-18
-9.3820179e-18
6.4813258e-12
-2.9382685e-11
-6.4813258e-12
2.9382686e-11
7.958259e-12
-1.2907397e-11
-7.958259e-12
1.2907397e-11
8.0738141e-12
-1.0767011e-11
-8.0738141e-12
2.7410412e-11
7.5506772e-12
-2.4849774e-11
-2.4194079e-11
2.4849774e-11
6.3866244e-12
-2.2593586e-11
-2.3030026e-11
5.9501841e-12
2.177749e-11
-2.0836653e-11
-5.1340889e-12
4.1932513e-12
8.9945755e-12
-6.2158425e-12
-8.9945755e-12
4.5515024e-12
6.3619787e-12
-3.6240242e-12
-6.3619787e-12
3.6240242e-12
3.925504e-12
-2.9838267e-12
-3.925504e-12
2.9838267e-12
3.341785e-12
-8.835033e-13
-3.341785e-12
2.5478434e-12
2.9037156e-12
-2.2540435e-12
-2.9037156e-12
5.8970333e-13
9.0329309e-13
-3.916989e-13
-9.0329309e-13
3.9169886e-13
6.4632621e-13
-2.5899845e-13
-6.4632621e-13
2.5899845e-13
2.1164906e-12
-1.7003261e-13
-2.1164906e-12
1.7003257e-13
3.0630278e-13
-1.1004546e-13
-3.0630278e-13
1.1004542e-13
2.0766016e-13
-1.7337552e-12
-2.0766016e-13
6.9414989e-14
1.3793829e-13
-4.1503561e-14
-1.8022784e-12
4.1503561e-14
9.0115821e-14
-2.4061363e-14
-9.0115821e-14
2.4061345e-14
5.8282273e-14
-1.2271468e-14
-5.8282273e-14
1.2271449e-14
3.716626e-14
-4.9254818e-15
-3.716626e-14
4.9254454e-15
2.3355789e-14
-9.9382527e-16
-2.3355789e-14
9.9382527e-16
1.4413451e-14
1.0669297e-15
-1.4413451e-14
-1.0668933e-15
8.6838407e-15
2.0616322e-15
-8.6838407e-15
-2.0616322e-15
5.0625218e-15
2.4194119e-15
-5.0625218e-15
-2.4194119e-15
2.8102207e-15
2.412366e-15
-2.8102207e-15
-2.412366e-15
1.4373703e-15
2.2129806e-15
-1.4373703e-15
-2.2129806e-15
6.2128952e-16
1.9279224e-15
-6.2128952e-16
-1.9279951e-15
1.5626541e-16
1.6199186e-15
-1.5626541e-16
-1.6202096e-15
-9.4671379e-17
1.3253643e-15
9.4671379e-17
-1.3255098e-15
-2.1508574e-16
1.0618773e-15
2.1508574e-16
-1.0618773e-15
-2.592681e-16
8.3612531e-16
2.592681e-16
-8.3612531e-16
-2.6131054e-16
6.4912861e-16
2.6131054e-16
-6.4912861e-16
-2.4142272e-16
4.9781552e-16
2.4142272e-16
-4.9839754e-16
-2.1213996e-16
3.757831e-16
2.1213996e-16
-3.757831e-16
-1.7961133e-16
2.8021326e-16
1.8019334e-16
-2.8079527e-16
-1.5066114e-16
2.0694753e-16
1.4949711e-16
-2.0694753e-16
-1.2065575e-16
1.5143762e-16
1.2181979e-16
-1.5143762e-16
-9.7955047e-17
1.097955e-16
9.7955047e-17
-1.097955e-16
-7.8119911e-17
7.88464e-17
7.8119911e-17
-7.88464e-17
-6.2002115e-17
5.6182483e-17
6.2002115e-17
-5.6182483e-17
-4.9413799e-17
3.9620564e-17
4.9413799e-17
-3.9620564e-17
-4.1594615e-17
2.5376538e-17
3.9266547e-17
-2.7704606e-17
-3.0865106e-17
1.9998275e-17
3.0865106e-17
-2.4654411e-17
-2.3662691e-17
1.4791444e-17
2.3662691e-17
-1.4791444e-17
-1.7630878e-17
1.1226176e-17
1.7630878e-17
-1.1226176e-17
-1.2555546e-17
9.4529311e-18
1.2555546e-17
-9.4529311e-18
-8.4763462e-18
8.217766e-18
8.4763462e-18
-8.217766e-18
-5.8123142e-18
6.502557e-18
5.8123142e-18
-6.502557e-18
-5.0016565e-18
4.3944522e-18
5.0016565e-18
-4.3944522e-18
-4.4445914e-18
2.4536401e-18
4.4445914e-18
-2.4536401e-18
-4.5208392e-18
1.5943497e-18
4.5208392e-18
-1.5943497e-18
-2.6217089e-18
5.1699914e-19
2.6217089e-18
-5.1699914e-19
3.1239082e-19
-2.0232068e-17
-3.1239082e-19
1.6075239e-18
3.7448168e-18
-4.7650703e-18
-3.7448168e-18
4.7650703e-18
4.1567892e-18
-6.5176469e-18
-4.1567892e-18
6.5176469e-18
4.697548e-18
-2.4482703e-17
-4.697548e-18
5.8581598e-18
4.2274579e-18
-6.0972696e-18
-4.2274579e-18
6.0972696e-18
1.4466215e-18
-8.6160385e-18
-1.4466215e-18
2.7240582e-17
-1.4458502e-18
-8.001776e-18
1.4458502e-18
8.001776e-18
-2.12369e-18
-2.4751609e-18
2.12369e-18
2.4751609e-18
-9.5532404e-12
2.0238423e-10
2.6196642e-11
-2.0238423e-10
-1.1620476e-11
3.7207264e-10
1.1620475e-11
-3.7207264e-10
-2.6942936e-11
3.3927632e-10
2.6942936e-11
-3.3927632e-10
-8.4716814e-12
2.6437766e-10
8.4716811e-12
-2.6437766e-10
-6.5444769e-12
1.9103066e-10
6.5444767e-12
-1.7438726e-10
-4.8388942e-12
1.2594688e-10
4.8388942e-12
-1.2594688e-10
-5.1393043e-12
7.5589686e-11
8.4679846e-12
-7.5589686e-11
-5.7930221e-12
4.6337776e-11
5.7930221e-12
-4.6337776e-11
-3.3938755e-12
2.9094384e-11
3.3938755e-12
-2.9094384e-11
-2.8637051e-12
1.6959541e-11
2.8637051e-12
-1.6959541e-11
-8.2918288e-13
1.0295262e-11
8.2918292e-13
-1.0295262e-11
-5.7065294e-13
6.600903e-12
2.2349931e-12
-6.600903e-12
-2.0549155e-12
3.6948751e-12
3.9057536e-13
-3.6948751e-12
-2.6679539e-13
2.9298508e-12
2.6679539e-13
-2.9298508e-12
-1.7748174e-13
2.4549268e-12
1.8418219e-12
-2.4549269e-12
-1.0997111e-13
4.9321555e-13
1.0997111e-13
-2.1575557e-12
-6.9068434e-14
1.9695118e-12
6.9068452e-14
-3.0517161e-13
-4.3966924e-14
1.8633237e-13
4.3966924e-14
-1.8633233e-13
-2.7697465e-14
1.1099876e-13
2.7697483e-14
-1.1099874e-13
-1.7008491e-14
6.4533341e-14
1.7008491e-14
-6.4533341e-14
-1.0061835e-14
3.6828253e-14
1.0061799e-14
-3.6828253e-14
-5.6941737e-15
2.0269549e-14
5.6941737e-15
-2.0269549e-14
-3.0127053e-15
1.0489387e-14
3.0127053e-15
-1.0489351e-14
-1.409976e-15
4.8541978e-15
1.409976e-15
-4.8541978e-15
-4.8991517e-16
1.7241931e-15
4.8991517e-16
-1.7241931e-15
6.6340598e-18
8.3187049e-17
-6.706812e-18
-8.3187049e-17
2.5357173e-16
-6.9430945e-16
-2.5349898e-16
6.943822e-16
3.4937233e-16
-9.8987891e-16
-3.4922683e-16
9.9016992e-16
3.6767342e-16
-1.0298264e-15
-3.6752791e-16
1.0301174e-15
3.4224659e-16
-9.4578293e-16
-3.4224659e-16
9.4578293e-16
2.9778349e-16
-8.1331809e-16
-2.9749248e-16
8.1331809e-16
2.479484e-16
-6.7057763e-16
-2.479484e-16
6.7057763e-16
2.0078566e-16
-5.3775513e-16
-2.0078566e-16
5.3775513e-16
1.5917067e-16
-4.2123451e-16
-1.5917067e-16
4.2123451e-16
1.2406291e-16
-3.2474422e-16
-1.2406291e-16
3.2532624e-16
9.666487e-17
-2.4747373e-16
-9.5500836e-17
2.4747373e-16
7.1621056e-17
-1.8699794e-16
-7.278509e-17
1.8699794e-16
5.6302125e-17
-1.4021517e-16
-5.5138091e-17
1.4021517e-16
4.1895935e-17
-1.0438786e-16
-4.1895935e-17
1.055519e-16
3.208029e-17
-7.7342319e-17
-3.208029e-17
7.7342319e-17
2.7263162e-17
-5.6914009e-17
-2.4935094e-17
5.6914009e-17
1.9656307e-17
-4.1376628e-17
-1.9656307e-17
4.3704696e-17
1.6080056e-17
-2.9325207e-17
-1.6080056e-17
2.9325207e-17
1.3474997e-17
-2.0689213e-17
-1.3474997e-17
2.0689213e-17
1.622315e-17
-1.4317453e-17
-6.9108783e-18
1.4317453e-17
1.0683716e-17
-9.6866427e-18
-1.0683716e-17
1.4342779e-17
1.0489569e-17
-6.7502591e-18
-1.0489569e-17
6.7502591e-18
1.0128949e-17
-4.8012568e-18
-1.0128949e-17
4.8012568e-18
1.103487e-17
-3.7342983e-18
-1.103487e-17
3.7342983e-18
2.0537118e-17
-3.5803352e-18
-1.9125741e-18
1.2892607e-17
1.1525447e-17
-2.9867949e-18
-1.1525447e-17
1.2299067e-17
1.1270148e-17
-3.5076085e-18
-1.1270148e-17
3.5076085e-18
1.1506594e-17
-3.0878048e-18
7.1179501e-18
3.0878048e-18
1.1887039e-17
-3.1133039e-18
-1.1887039e-17
3.1133039e-18
1.2907488e-17
-3.8362333e-18
-1.2907488e-17
3.8362333e-18
1.1703911e-17
-5.856227e-18
6.9206325e-18
5.856227e-18
1.2750381e-17
-8.4113838e-18
-1.2750381e-17
2.7035927e-17
3.1941315e-17
-9.6330789e-18
-1.3316772e-17
9.6330789e-18
9.7199693e-18
-1.0154049e-17
8.9045743e-18
2.8778592e-17
4.3394741e-18
-9.3820179e-18
-4.3394741e-18
2.8006562e-17
)
;

boundaryField
{
    movingWall
    {
        type            calculated;
        value           nonuniform List<scalar> 
16
(
2.1236907e-18
-4.3394738e-18
-2.12369e-18
4.3394741e-18
2.1099705e-17
9.3820179e-18
-2.4751609e-18
-9.3820179e-18
-2.1236907e-18
4.3394738e-18
2.12369e-18
-4.3394741e-18
-2.475161e-18
-9.3820179e-18
2.4751609e-18
2.8006562e-17
)
;
    }
    CPLReceiveMD
    {
        type            calculated;
        value           nonuniform List<scalar> 
16
(
-6.4813264e-12
9.553241e-12
6.4813258e-12
-9.5532404e-12
2.9382685e-11
-2.0238423e-10
-2.9382685e-11
2.0238423e-10
6.4813258e-12
-2.6196642e-11
-6.4813258e-12
2.6196642e-11
-2.9382686e-11
2.0238423e-10
2.9382686e-11
-2.0238423e-10
)
;
    }
    streamwiseIn
    {
        type            cyclic;
    }
    streamwiseOut
    {
        type            cyclic;
    }
    front
    {
        type            cyclic;
    }
    back
    {
        type            cyclic;
    }
}


// ************************************************************************* //
