/*--------------------------------*- C++ -*----------------------------------*\
| =========                 |                                                 |
| \\      /  F ield         | OpenFOAM: The Open Source CFD Toolbox           |
|  \\    /   O peration     | Version:  3.0.x                                 |
|   \\  /    A nd           | Web:      www.OpenFOAM.org                      |
|    \\/     M anipulation  |                                                 |
\*---------------------------------------------------------------------------*/
FoamFile
{
    version     2.0;
    format      ascii;
    class       volScalarField;
    location    "100";
    object      sigmayz;
}
// * * * * * * * * * * * * * * * * * * * * * * * * * * * * * * * * * * * * * //

dimensions      [0 2 -2 0 0 0 0];

internalField   nonuniform List<scalar> 
960
(
-6.5120462e-11
7.8463188e-11
2.7783561e-11
1.3493812e-10
2.1598458e-11
-1.930849e-12
-7.6217917e-12
2.2924888e-12
3.4842357e-11
-2.0465052e-11
-6.7013822e-12
-2.6485673e-11
3.3894922e-11
-2.3553342e-11
-5.7972199e-12
-3.8201891e-11
2.700445e-11
-2.1810575e-11
-5.2235756e-12
-4.1598041e-11
1.9427919e-11
-2.0751123e-11
-4.8748772e-12
-3.9945677e-11
1.3106309e-11
-1.8744347e-11
-4.495228e-12
-3.5504233e-11
8.4898503e-12
-1.602977e-11
-3.8207959e-12
-2.9851683e-11
5.3810755e-12
-1.3296097e-11
-3.0584232e-12
-2.4040807e-11
3.3994106e-12
-1.0608355e-11
-2.3236178e-12
-1.8698351e-11
2.1901893e-12
-7.9891574e-12
-1.6700368e-12
-1.4117608e-11
1.4640626e-12
-5.6867588e-12
-1.1350419e-12
-1.0382835e-11
1.018093e-12
-3.8873267e-12
-7.2671426e-13
-7.4610279e-12
7.3914232e-13
-2.5549853e-12
-4.3517959e-13
-5.2496886e-12
5.5044712e-13
-1.6838049e-12
-2.4396823e-13
-3.6219955e-12
4.1617747e-13
-1.144433e-12
-1.2570384e-13
-2.4794391e-12
3.025339e-13
-7.52225e-13
-5.6352228e-14
-1.6844656e-12
2.1457176e-13
-4.8043899e-13
-1.6907803e-14
-1.1122794e-12
1.5828743e-13
-2.9864411e-13
6.6856584e-15
-7.1868115e-13
1.1120253e-13
-1.8082088e-13
2.1826216e-14
-4.5791647e-13
7.438526e-14
-1.0726205e-13
2.6904445e-14
-2.8776387e-13
4.7331913e-14
-6.2515867e-14
2.320643e-14
-1.78827e-13
2.8335287e-14
-3.6193577e-14
1.7641925e-14
-1.1041755e-13
1.5208433e-14
-2.1234351e-14
1.2651507e-14
-6.784459e-14
6.8417404e-15
-1.3127698e-14
8.6595679e-15
-4.1827447e-14
1.6021485e-15
-8.7456994e-15
5.5218723e-15
-2.5920613e-14
-1.176063e-15
-6.3933333e-15
3.5070037e-15
-1.6636855e-14
-2.7039612e-15
-5.0643382e-15
2.1832249e-15
-1.0735009e-14
-3.2590528e-15
-4.3141981e-15
1.2861892e-15
-7.1193783e-15
-3.0387093e-15
-3.6796538e-15
7.3418844e-16
-4.9985923e-15
-2.673666e-15
-3.252916e-15
6.2866827e-16
-3.6027933e-15
-2.0834165e-15
-2.6786489e-15
4.2420494e-16
-2.6078296e-15
-1.6542904e-15
-2.1198426e-15
5.9552014e-16
-1.9247091e-15
-1.2492939e-15
-1.9116513e-15
6.1286536e-16
-1.3357943e-15
-7.1561412e-16
-1.3929943e-15
6.2014632e-16
-8.1152791e-16
-5.5633532e-16
-1.0654408e-15
6.2044717e-16
-6.6735117e-16
-2.701914e-16
-9.2946599e-16
4.4822465e-16
-3.9205315e-16
-1.8490991e-16
-6.5130104e-16
6.0247058e-16
-1.4500993e-16
2.05365e-16
-3.9577858e-16
4.1812846e-16
-8.6665265e-17
2.4049435e-16
-3.2619911e-16
5.6259621e-16
-4.584481e-17
2.5870715e-16
-2.7351944e-16
3.7172167e-16
-1.685927e-17
1.005708e-16
-2.3576653e-16
3.4487592e-16
4.2780119e-18
1.0160745e-16
-4.3661327e-17
1.5285338e-16
1.8262615e-17
9.5908103e-17
-2.6265728e-17
1.307202e-16
2.6254339e-17
1.877281e-16
-1.4357013e-17
2.08914e-16
2.9721718e-17
1.6154985e-16
-6.2203604e-18
1.7348873e-16
3.0109423e-17
1.3167688e-16
8.6144643e-19
1.6002885e-16
1.94056e-16
5.1708932e-17
6.9960583e-18
6.6881763e-17
2.0785373e-17
4.105837e-17
9.965017e-18
2.2356052e-16
1.5392826e-17
3.395714e-17
2.7835251e-17
4.5069358e-17
2.9743373e-17
2.7943308e-17
2.3812018e-17
3.5628876e-17
3.1046133e-17
1.8587028e-16
-5.8137063e-19
3.2142912e-17
1.8599315e-17
1.1107554e-17
-6.7514545e-18
3.2069459e-17
1.8494813e-16
7.0054604e-18
-2.7064012e-18
2.6491297e-17
1.2550103e-17
8.4357888e-18
5.0247101e-18
1.277372e-17
8.8056252e-18
8.9742789e-18
4.8525121e-18
1.7374002e-16
5.1329607e-18
3.3737727e-18
7.4258231e-18
1.4318421e-17
-5.4754862e-18
-1.3048431e-17
1.0710764e-17
2.7796409e-17
-1.1803771e-17
6.1818062e-19
7.8281187e-18
-7.1085062e-18
-6.3406661e-18
3.2597741e-17
1.7595895e-17
-8.9800111e-18
4.8405036e-17
8.8267316e-10
4.9602898e-11
2.3996073e-10
-3.186258e-11
-4.4495041e-10
1.9396965e-10
1.0825419e-10
2.0343994e-10
-9.1640603e-10
4.4186048e-11
-2.6574316e-11
7.6174494e-11
-7.3479868e-10
-2.906928e-11
-7.8883843e-11
4.2535594e-12
-5.9705381e-10
-6.3814968e-11
-9.4525489e-11
-3.3387192e-11
-4.4952576e-10
-7.2290671e-11
-9.1919103e-11
-4.7343314e-11
-3.1817616e-10
-6.7854302e-11
-8.1322616e-11
-4.8886226e-11
-2.1858178e-10
-5.8900469e-11
-6.7284342e-11
-4.5086525e-11
-1.4891325e-10
-4.941523e-11
-5.3665025e-11
-3.9441591e-11
-1.0152885e-10
-4.0621172e-11
-4.189408e-11
-3.3526377e-11
-6.9600196e-11
-3.2938668e-11
-3.2275639e-11
-2.7979401e-11
-4.8100657e-11
-2.6491904e-11
-2.4661995e-11
-2.3026533e-11
-3.353083e-11
-2.114303e-11
-1.8738567e-11
-1.8738513e-11
-2.3558865e-11
-1.6780428e-11
-1.4182855e-11
-1.509181e-11
-1.666763e-11
-1.3279988e-11
-1.0702446e-11
-1.2035999e-11
-1.1865652e-11
-1.0433515e-11
-8.0536499e-12
-9.5730275e-12
-8.4836796e-12
-8.1032323e-12
-6.04452e-12
-7.5791609e-12
-6.0793289e-12
-6.2380871e-12
-4.5234179e-12
-5.9095028e-12
-4.3632019e-12
-4.7681239e-12
-3.3822045e-12
-4.553989e-12
-3.1300679e-12
-3.6221291e-12
-2.5306984e-12
-3.4820566e-12
-2.2465518e-12
-2.7364785e-12
-1.888113e-12
-2.6466404e-12
-1.614239e-12
-2.0569895e-12
-1.4008486e-12
-2.0008877e-12
-1.1617127e-12
-1.5396849e-12
-1.0367926e-12
-1.5057069e-12
-8.3748838e-13
-1.1483132e-12
-7.6642107e-13
-1.1284819e-12
-6.0482899e-13
-8.5365811e-13
-5.66256e-13
-8.4237739e-13
-4.3778552e-13
-6.3286913e-13
-4.1803521e-13
-6.2708951e-13
-3.1740003e-13
-4.6799169e-13
-3.088137e-13
-4.6530064e-13
-2.3080939e-13
-3.4541837e-13
-2.2797941e-13
-3.4446654e-13
-1.681707e-13
-2.5445222e-13
-1.6851271e-13
-2.5464635e-13
-1.2281149e-13
-1.8693405e-13
-1.2433701e-13
-1.8771128e-13
-8.9661346e-14
-1.372252e-13
-9.1918537e-14
-1.3793229e-13
-6.5827577e-14
-1.005652e-13
-6.8086187e-14
-1.0144828e-13
-4.8243736e-14
-7.3753641e-14
-5.0231859e-14
-7.4272389e-14
-3.5514968e-14
-5.3690937e-14
-3.7026038e-14
-5.4494714e-14
-2.6164451e-14
-3.9268804e-14
-2.7519757e-14
-3.9854346e-14
-1.9062016e-14
-2.8623881e-14
-2.0274398e-14
-2.9160246e-14
-1.4037523e-14
-2.0740218e-14
-1.5128915e-14
-2.1233266e-14
-1.034706e-14
-1.5070779e-14
-1.1007766e-14
-1.552623e-14
-7.6469187e-15
-1.100174e-14
-8.0628637e-15
-1.1093245e-14
-5.640245e-15
-8.160112e-15
-5.9950791e-15
-8.0609871e-15
-4.231489e-15
-5.8958418e-15
-4.374219e-15
-5.9451465e-15
-3.0179854e-15
-4.2649844e-15
-3.2939056e-15
-4.3001257e-15
-2.282769e-15
-3.0189484e-15
-2.531301e-15
-3.043479e-15
-1.6542145e-15
-2.2645739e-15
-1.7137728e-15
-2.2824839e-15
-1.202758e-15
-1.6271812e-15
-1.2963519e-15
-1.4718244e-15
-8.9343805e-16
-1.0740647e-15
-9.5675529e-16
-1.2447746e-15
-6.4345997e-16
-7.4662897e-16
-6.7949104e-16
-7.488305e-16
-5.7375376e-16
-6.3205776e-16
-4.1928859e-16
-4.6345972e-16
-3.4422857e-16
-5.502748e-16
-3.4907381e-16
-3.7949172e-16
-2.9543783e-16
-3.2414355e-16
-2.984043e-16
-3.0555327e-16
-2.6118632e-16
-2.2983351e-16
-9.5040912e-17
-2.1301033e-16
-7.036235e-17
-7.9446417e-17
-6.9961487e-17
-2.4595526e-16
-2.1589982e-16
-5.6276292e-17
-5.1030605e-17
-2.2026217e-16
-2.0156144e-16
-4.1616873e-17
-3.2157291e-17
-3.6057413e-17
-1.9169832e-16
-2.6711481e-17
-1.8081302e-16
-2.7438225e-17
-1.87244e-16
-1.5060696e-17
-2.6534877e-18
-1.568417e-17
-1.5452444e-17
-9.0588652e-18
-4.6399823e-19
-2.6582201e-18
-2.6119372e-17
2.8708206e-18
-2.5602015e-18
-9.1553751e-18
-2.7051039e-17
-8.2031516e-18
5.239426e-18
-4.3829579e-17
1.868856e-17
-2.5775111e-21
-4.219697e-17
-5.5797511e-17
6.5120462e-11
-7.8463188e-11
-2.7783561e-11
-1.3493812e-10
-2.1598458e-11
1.930849e-12
7.6217917e-12
-2.2924888e-12
-3.4842357e-11
2.0465052e-11
6.7013822e-12
2.6485673e-11
-3.3894922e-11
2.3553342e-11
5.7972199e-12
3.8201891e-11
-2.700445e-11
2.1810575e-11
5.2235756e-12
4.1598041e-11
-1.9427919e-11
2.0751123e-11
4.8748772e-12
3.9945677e-11
-1.3106309e-11
1.8744347e-11
4.495228e-12
3.5504233e-11
-8.4898503e-12
1.602977e-11
3.8207959e-12
2.9851683e-11
-5.3810755e-12
1.3296097e-11
3.0584232e-12
2.4040807e-11
-3.3994106e-12
1.0608355e-11
2.3236178e-12
1.8698351e-11
-2.1901893e-12
7.9891574e-12
1.6700368e-12
1.4117608e-11
-1.4640626e-12
5.6867588e-12
1.1350419e-12
1.0382835e-11
-1.018093e-12
3.8873267e-12
7.2671426e-13
7.4610279e-12
-7.3914232e-13
2.5549853e-12
4.3517959e-13
5.2496886e-12
-5.5044712e-13
1.6838049e-12
2.4396823e-13
3.6219955e-12
-4.1617747e-13
1.144433e-12
1.2570385e-13
2.4794391e-12
-3.025339e-13
7.52225e-13
5.6352228e-14
1.6844656e-12
-2.1457176e-13
4.8043899e-13
1.6907803e-14
1.1122794e-12
-1.5828743e-13
2.9864411e-13
-6.6856584e-15
7.1868115e-13
-1.1120253e-13
1.8082088e-13
-2.1826216e-14
4.5791647e-13
-7.438526e-14
1.0726205e-13
-2.6904445e-14
2.8776387e-13
-4.7331913e-14
6.2515868e-14
-2.320643e-14
1.78827e-13
-2.8335287e-14
3.6193578e-14
-1.7641925e-14
1.1041755e-13
-1.5208433e-14
2.1234351e-14
-1.2651507e-14
6.7844589e-14
-6.8417404e-15
1.3127698e-14
-8.6595679e-15
4.1827447e-14
-1.6021484e-15
8.7456994e-15
-5.5218723e-15
2.5920613e-14
1.176063e-15
6.3933333e-15
-3.5070037e-15
1.6636856e-14
2.7039612e-15
5.0643382e-15
-2.1832249e-15
1.0735009e-14
3.2590528e-15
4.3141981e-15
-1.2861892e-15
7.1193783e-15
3.0387094e-15
3.6796538e-15
-7.3418844e-16
4.9985923e-15
2.6736661e-15
3.2529161e-15
-6.2866821e-16
3.6027934e-15
2.0834165e-15
2.678649e-15
-4.2420487e-16
2.6078296e-15
1.6542903e-15
2.1198426e-15
-5.9552013e-16
1.924709e-15
1.2492939e-15
1.9116513e-15
-6.1286537e-16
1.3357943e-15
7.1561413e-16
1.3929943e-15
-6.2014632e-16
8.1152797e-16
5.5633533e-16
1.0654408e-15
-6.2044717e-16
6.6735117e-16
2.7019141e-16
9.2946598e-16
-4.4822472e-16
3.9205315e-16
1.8490991e-16
6.5130104e-16
-6.0247058e-16
1.4500994e-16
-2.0536501e-16
3.9577859e-16
-4.181284e-16
8.6665261e-17
-2.4049435e-16
3.2619912e-16
-5.625962e-16
4.5844817e-17
-2.5870714e-16
2.7351944e-16
-3.7172167e-16
1.6859277e-17
-1.005708e-16
2.3576654e-16
-3.4487592e-16
-4.2780119e-18
-1.0160745e-16
4.3661329e-17
-1.5285337e-16
-1.8262619e-17
-9.5908096e-17
2.6265729e-17
-1.307202e-16
-2.6254343e-17
-1.877281e-16
1.4357012e-17
-2.08914e-16
-2.9721718e-17
-1.6154985e-16
6.2203627e-18
-1.7348873e-16
-3.0109423e-17
-1.3167688e-16
-8.6144577e-19
-1.6002885e-16
-1.94056e-16
-5.1708932e-17
-6.9960589e-18
-6.6881763e-17
-2.0785374e-17
-4.105837e-17
-9.965015e-18
-2.2356052e-16
-1.5392828e-17
-3.3957143e-17
-2.7835249e-17
-4.5069358e-17
-2.9743374e-17
-2.7943307e-17
-2.3812018e-17
-3.5628872e-17
-3.1046132e-17
-1.8587028e-16
5.8137129e-19
-3.2142908e-17
-1.8599314e-17
-1.1107554e-17
6.7514567e-18
-3.2069459e-17
-1.8494813e-16
-7.005461e-18
2.7064023e-18
-2.6491297e-17
-1.2550103e-17
-8.4357901e-18
-5.0247107e-18
-1.2773719e-17
-8.8056248e-18
-8.9742789e-18
-4.8525114e-18
-1.7374002e-16
-5.1329593e-18
-3.3737727e-18
-7.4258249e-18
-1.4318422e-17
5.4754865e-18
1.3048431e-17
-1.0710767e-17
-2.7796411e-17
1.180377e-17
-6.1818326e-19
-7.8281239e-18
7.108504e-18
6.3406667e-18
-3.2597742e-17
-1.7595904e-17
8.9800093e-18
-4.8405035e-17
-8.8267316e-10
-4.9602898e-11
-2.3996073e-10
3.186258e-11
4.4495041e-10
-1.9396965e-10
-1.0825419e-10
-2.0343994e-10
9.1640603e-10
-4.4186048e-11
2.6574316e-11
-7.6174494e-11
7.3479868e-10
2.906928e-11
7.8883843e-11
-4.2535594e-12
5.9705381e-10
6.3814968e-11
9.4525489e-11
3.3387192e-11
4.4952576e-10
7.2290671e-11
9.1919103e-11
4.7343314e-11
3.1817616e-10
6.7854302e-11
8.1322616e-11
4.8886226e-11
2.1858178e-10
5.8900469e-11
6.7284342e-11
4.5086525e-11
1.4891325e-10
4.941523e-11
5.3665025e-11
3.9441591e-11
1.0152885e-10
4.0621172e-11
4.189408e-11
3.3526377e-11
6.9600196e-11
3.2938668e-11
3.2275639e-11
2.7979401e-11
4.8100657e-11
2.6491904e-11
2.4661995e-11
2.3026533e-11
3.353083e-11
2.114303e-11
1.8738567e-11
1.8738513e-11
2.3558865e-11
1.6780428e-11
1.4182855e-11
1.509181e-11
1.666763e-11
1.3279988e-11
1.0702446e-11
1.2035999e-11
1.1865652e-11
1.0433515e-11
8.0536499e-12
9.5730275e-12
8.4836796e-12
8.1032323e-12
6.04452e-12
7.5791609e-12
6.0793289e-12
6.2380871e-12
4.5234179e-12
5.9095028e-12
4.3632019e-12
4.7681239e-12
3.3822045e-12
4.553989e-12
3.1300679e-12
3.6221291e-12
2.5306984e-12
3.4820566e-12
2.2465518e-12
2.7364785e-12
1.888113e-12
2.6466404e-12
1.614239e-12
2.0569895e-12
1.4008486e-12
2.0008877e-12
1.1617127e-12
1.5396849e-12
1.0367926e-12
1.5057069e-12
8.3748838e-13
1.1483132e-12
7.6642107e-13
1.1284819e-12
6.0482899e-13
8.5365811e-13
5.66256e-13
8.4237739e-13
4.3778552e-13
6.3286913e-13
4.1803521e-13
6.2708951e-13
3.1740003e-13
4.6799169e-13
3.088137e-13
4.6530064e-13
2.3080939e-13
3.4541837e-13
2.279794e-13
3.4446654e-13
1.681707e-13
2.5445222e-13
1.6851271e-13
2.5464635e-13
1.2281149e-13
1.8693405e-13
1.2433702e-13
1.8771128e-13
8.9661346e-14
1.372252e-13
9.1918537e-14
1.3793229e-13
6.5827577e-14
1.005652e-13
6.8086187e-14
1.0144828e-13
4.8243736e-14
7.3753641e-14
5.0231859e-14
7.4272389e-14
3.5514968e-14
5.3690937e-14
3.7026038e-14
5.4494714e-14
2.6164451e-14
3.9268804e-14
2.7519757e-14
3.9854346e-14
1.9062016e-14
2.8623881e-14
2.0274398e-14
2.9160245e-14
1.4037523e-14
2.0740218e-14
1.5128915e-14
2.1233266e-14
1.034706e-14
1.5070779e-14
1.1007766e-14
1.552623e-14
7.6469187e-15
1.100174e-14
8.0628637e-15
1.1093245e-14
5.640245e-15
8.160112e-15
5.9950791e-15
8.0609871e-15
4.231489e-15
5.8958418e-15
4.374219e-15
5.9451464e-15
3.0179854e-15
4.2649844e-15
3.2939056e-15
4.3001257e-15
2.282769e-15
3.0189484e-15
2.531301e-15
3.043479e-15
1.6542145e-15
2.2645739e-15
1.7137728e-15
2.282484e-15
1.202758e-15
1.6271812e-15
1.2963519e-15
1.4718244e-15
8.9343805e-16
1.0740647e-15
9.5675529e-16
1.2447746e-15
6.4345997e-16
7.4662891e-16
6.7949104e-16
7.488305e-16
5.7375375e-16
6.3205776e-16
4.1928859e-16
4.6345972e-16
3.4422858e-16
5.502748e-16
3.4907381e-16
3.7949172e-16
2.9543784e-16
3.2414354e-16
2.9840431e-16
3.0555328e-16
2.6118632e-16
2.2983351e-16
9.5040919e-17
2.1301033e-16
7.0362345e-17
7.9446416e-17
6.9961487e-17
2.4595525e-16
2.1589982e-16
5.6276288e-17
5.1030601e-17
2.2026217e-16
2.0156144e-16
4.1616871e-17
3.2157287e-17
3.6057417e-17
1.9169831e-16
2.6711478e-17
1.8081302e-16
2.7438223e-17
1.87244e-16
1.5060692e-17
2.653487e-18
1.5684171e-17
1.5452444e-17
9.058862e-18
4.6399813e-19
2.6582219e-18
2.6119371e-17
-2.8708223e-18
2.5602008e-18
9.1553757e-18
2.7051039e-17
8.2031509e-18
-5.2394274e-18
4.382958e-17
-1.868856e-17
2.5749352e-21
4.2196969e-17
5.5797513e-17
)
;

boundaryField
{
    movingWall
    {
        type            calculated;
        value           nonuniform List<scalar> 
16
(
3.867859e-17
4.9687629e-17
-3.867859e-17
-4.9687632e-17
3.0389294e-17
-6.0455531e-18
-3.0389305e-17
6.0455507e-18
-6.1214236e-19
-8.259922e-17
6.1214053e-19
8.2599217e-17
8.0744185e-17
-7.4930406e-17
-8.0744185e-17
7.4930409e-17
)
;
    }
    CPLReceiveMD
    {
        type            calculated;
        value           nonuniform List<scalar> 
16
(
-1.3121722e-10
1.3351381e-09
1.3121722e-10
-1.3351381e-09
1.4319618e-10
-1.8096947e-10
-1.4319618e-10
1.8096947e-10
6.2131406e-11
2.879049e-10
-6.2131406e-11
-2.879049e-10
2.4525221e-10
-3.3005524e-10
-2.4525221e-10
3.3005524e-10
)
;
    }
    streamwiseIn
    {
        type            cyclic;
    }
    streamwiseOut
    {
        type            cyclic;
    }
    front
    {
        type            cyclic;
    }
    back
    {
        type            cyclic;
    }
}


// ************************************************************************* //
