/*--------------------------------*- C++ -*----------------------------------*\
| =========                 |                                                 |
| \\      /  F ield         | OpenFOAM: The Open Source CFD Toolbox           |
|  \\    /   O peration     | Version:  3.0.x                                 |
|   \\  /    A nd           | Web:      www.OpenFOAM.org                      |
|    \\/     M anipulation  |                                                 |
\*---------------------------------------------------------------------------*/
FoamFile
{
    version     2.0;
    format      ascii;
    class       volScalarField;
    location    "100";
    object      sigmayy;
}
// * * * * * * * * * * * * * * * * * * * * * * * * * * * * * * * * * * * * * //

dimensions      [0 2 -2 0 0 0 0];

internalField   nonuniform List<scalar> 
960
(
3.8087596e-09
-2.3409263e-09
3.6537424e-09
3.5538556e-09
5.6845533e-11
-4.0833015e-10
3.5883856e-10
6.1235951e-10
4.0264599e-09
5.456588e-09
-6.1698796e-09
-5.3782462e-09
1.1313091e-08
1.2689817e-08
-1.2998129e-08
-1.2478428e-08
1.5440806e-08
1.6526252e-08
-1.6236386e-08
-1.6345337e-08
1.3211402e-08
1.4730038e-08
-1.3807819e-08
-1.4616844e-08
7.4375571e-09
9.1475108e-09
-7.9576634e-09
-9.1056884e-09
1.263622e-09
2.769694e-09
-1.7376482e-09
-2.7984823e-09
-3.4980551e-09
-2.4101877e-09
3.055955e-09
2.3177082e-09
-6.2685954e-09
-5.6336236e-09
5.8575916e-09
5.4914746e-09
-7.2446648e-09
-6.9787348e-09
6.8716556e-09
6.8042686e-09
-6.9412444e-09
-6.9244306e-09
6.6126518e-09
6.7341773e-09
-5.899256e-09
-6.01723e-09
5.6174741e-09
5.8244561e-09
-4.5456903e-09
-4.707536e-09
4.309001e-09
4.521638e-09
-3.1487363e-09
-3.2988448e-09
2.9527151e-09
3.1258364e-09
-1.8528062e-09
-1.9554035e-09
1.6919553e-09
1.7983007e-09
-7.0961545e-10
-7.4608461e-10
5.7867451e-10
6.0606724e-10
2.8279163e-10
3.2423661e-10
-3.8853223e-10
-4.4626434e-10
1.1501152e-09
1.2789316e-09
-1.2347902e-09
-1.3827546e-09
1.9248993e-09
2.1550307e-09
-1.9917017e-09
-2.2413562e-09
2.6371058e-09
2.9843017e-09
-2.6884958e-09
-3.0541222e-09
3.3061674e-09
3.7938928e-09
-3.3441552e-09
-3.8483894e-09
3.94255e-09
4.6027399e-09
-3.9688472e-09
-4.6433036e-09
4.5467806e-09
5.4181225e-09
-4.5630822e-09
-5.446362e-09
5.1188776e-09
6.2449498e-09
-5.1269425e-09
-6.2626599e-09
5.6213057e-09
7.0718425e-09
-5.6229715e-09
-7.0809608e-09
6.0495702e-09
7.8693543e-09
-6.0467341e-09
-7.8718911e-09
6.3619248e-09
8.6457695e-09
-6.3564946e-09
-8.643728e-09
6.5356595e-09
9.3607937e-09
-6.5294922e-09
-9.3561032e-09
6.5237168e-09
9.9701554e-09
-6.5185533e-09
-9.9646061e-09
6.3003378e-09
1.0436976e-08
-6.2977511e-09
-1.0432165e-08
5.7960941e-09
1.0743271e-08
-5.7974504e-09
-1.0740575e-08
5.0219133e-09
1.0812888e-08
-5.028337e-09
-1.0813441e-08
3.8605706e-09
1.0601163e-08
-3.8729256e-09
-1.0605845e-08
2.5020012e-09
9.9629796e-09
-2.520882e-09
-9.9724267e-09
8.1357167e-10
9.1869848e-09
-8.3929313e-10
-9.2015948e-09
-1.3022333e-09
7.7993355e-09
1.2696288e-09
-7.8192765e-09
-3.7057912e-09
5.9975867e-09
3.6665371e-09
-6.0228122e-09
-6.2406317e-09
3.655151e-09
6.1952401e-09
-3.6854055e-09
-8.8438072e-09
8.7960267e-10
8.7930649e-09
-9.1442713e-10
-1.1435744e-08
-2.3163045e-09
1.1380713e-08
2.2775719e-09
-1.3811815e-08
-5.8996409e-09
1.3753824e-08
5.8578621e-09
-1.5979689e-08
-9.9243556e-09
1.5920315e-08
9.8805889e-09
-1.7611036e-08
-1.4084143e-08
1.7552067e-08
1.4039627e-08
-1.8604632e-08
-1.8265058e-08
1.8548001e-08
1.8221173e-08
-1.8541309e-08
-2.2545152e-08
1.8488995e-08
2.2503362e-08
-1.8136768e-08
-2.5976141e-08
1.8090645e-08
2.5937889e-08
-1.7143354e-08
-2.7809376e-08
1.7104969e-08
2.7775929e-08
-1.4469083e-08
-3.0057218e-08
1.4439407e-08
3.0029473e-08
-1.1289265e-08
-3.0294716e-08
1.1268387e-08
3.027299e-08
-7.71797e-09
-2.944539e-08
7.7047786e-09
2.9429187e-08
-3.9120425e-09
-2.625815e-08
3.9039686e-09
2.6245957e-08
1.0495837e-09
-2.0668142e-08
-1.0566448e-09
2.0657454e-08
4.743679e-09
-1.3837937e-08
-4.7549259e-09
1.382565e-08
8.0817021e-09
-5.9807391e-09
-8.1021052e-09
5.9640568e-09
1.0896169e-08
3.6077775e-09
-1.0929908e-08
-3.6297121e-09
1.1916558e-08
1.3088089e-08
-1.1966957e-08
-1.3112205e-08
1.1936461e-08
1.9799711e-08
-1.2009676e-08
-1.9812916e-08
1.0199533e-08
1.9529527e-08
-1.0161309e-08
-1.953829e-08
6.8542791e-09
1.4193307e-08
-6.6419577e-09
-1.4219685e-08
-2.2836941e-09
-1.7866356e-09
2.8287305e-09
2.5548311e-09
6.2821884e-10
1.3536174e-10
-4.8272236e-10
2.6276434e-10
6.4891508e-09
5.4759555e-09
-6.3827219e-09
-5.2603916e-09
1.3379589e-08
1.2608351e-08
-1.3187053e-08
-1.2388071e-08
1.6535476e-08
1.6368209e-08
-1.6302419e-08
-1.6194134e-08
1.3952048e-08
1.4554874e-08
-1.3746062e-08
-1.4417865e-08
8.006736e-09
9.0225271e-09
-7.8645557e-09
-8.9313134e-09
1.7198246e-09
2.7177093e-09
-1.6509796e-09
-2.6757744e-09
-3.121041e-09
-2.3932807e-09
3.1252133e-09
2.38954e-09
-5.9541036e-09
-5.5663262e-09
5.9098756e-09
5.5260173e-09
-6.9863583e-09
-6.8843016e-09
6.9114925e-09
6.8185671e-09
-6.7351783e-09
-6.8215049e-09
6.6446189e-09
6.7404511e-09
-5.7400579e-09
-5.9201536e-09
5.6444871e-09
5.8319641e-09
-4.4265403e-09
-4.623277e-09
4.3326894e-09
4.5338912e-09
-3.0617618e-09
-3.2270913e-09
2.9733406e-09
3.1402761e-09
-1.792418e-09
-1.8980032e-09
1.7111213e-09
1.8165656e-09
-6.6868421e-10
-7.0061675e-10
5.9500585e-10
6.2650475e-10
3.0919206e-10
3.603092e-10
-3.7496191e-10
-4.2649108e-10
1.1663793e-09
1.3079482e-09
-1.2237743e-09
-1.3657814e-09
1.9329315e-09
2.1778122e-09
-1.9816787e-09
-2.2266247e-09
2.6386168e-09
3.0034535e-09
-2.6786116e-09
-3.0428742e-09
3.3023368e-09
3.8094042e-09
-3.3336976e-09
-3.8394662e-09
3.9342123e-09
4.614273e-09
-3.957433e-09
-4.6354214e-09
4.534529e-09
5.4284236e-09
-4.5504045e-09
-5.4415049e-09
5.0931652e-09
6.2454816e-09
-5.1027625e-09
-6.2517082e-09
5.5946879e-09
7.07168e-09
-5.5992955e-09
-7.0725628e-09
6.0223543e-09
7.8796779e-09
-6.0234082e-09
-7.87694e-09
6.3344044e-09
8.6443771e-09
-6.3334028e-09
-8.6398671e-09
6.4970357e-09
9.3586893e-09
-6.4954521e-09
-9.354287e-09
6.4853891e-09
9.9560792e-09
-6.4846009e-09
-9.953609e-09
6.2515352e-09
1.0432895e-08
-6.252763e-09
-1.043405e-08
5.7593598e-09
1.0726719e-08
-5.7636164e-09
-1.0733e-08
4.9754304e-09
1.078355e-08
-4.9834977e-09
-1.0796216e-08
3.8602181e-09
1.049212e-08
-3.8726351e-09
-1.0512148e-08
2.3928645e-09
9.9625005e-09
-2.4099252e-09
-9.990556e-09
7.0704071e-10
9.0728035e-09
-7.2880144e-10
-9.1092158e-09
-1.4057177e-09
7.7930346e-09
1.3794321e-09
-7.8377728e-09
-3.6948437e-09
5.9879229e-09
3.6644218e-09
-6.0405888e-09
-6.3367732e-09
3.6419018e-09
6.3028005e-09
-3.7017143e-09
-8.8248021e-09
8.626371e-10
8.7880466e-09
-9.2842757e-10
-1.1412331e-08
-2.3370047e-09
1.1373729e-08
2.2667836e-09
-1.3894894e-08
-6.0349037e-09
1.3855527e-08
5.9621622e-09
-1.6058464e-08
-1.0062928e-08
1.6019525e-08
9.9898944e-09
-1.7685945e-08
-1.4114576e-08
1.7648698e-08
1.4043724e-08
-1.8676465e-08
-1.8297587e-08
1.8642167e-08
1.8231533e-08
-1.850032e-08
-2.2578825e-08
1.8470122e-08
2.2520167e-08
-1.8095583e-08
-2.6009763e-08
1.807039e-08
2.596087e-08
-1.7104106e-08
-2.8951078e-08
1.7084375e-08
2.8913823e-08
-1.4434359e-08
-3.0086254e-08
1.4419877e-08
3.0061691e-08
-1.1262014e-08
-3.0318869e-08
1.1251654e-08
3.0306925e-08
-7.7013062e-09
-2.9462816e-08
7.6928087e-09
2.9461968e-08
-2.799379e-09
-2.6267044e-08
2.7892381e-09
2.6274089e-08
-7.2812915e-11
-2.1776442e-08
5.6459036e-11
2.1786594e-08
4.713704e-09
-1.3825261e-08
-4.7411207e-09
1.383273e-08
8.0352113e-09
-5.9559398e-09
-8.0771139e-09
5.9551842e-09
9.7264225e-09
3.6432249e-09
-9.7826014e-09
-3.6553859e-09
1.1847913e-08
1.3124659e-08
-1.1912025e-08
-1.3146233e-08
1.2972409e-08
1.8698051e-08
-1.3024128e-08
-1.8714238e-08
1.014038e-08
2.0639274e-08
-1.0142924e-08
-2.0645707e-08
6.8148439e-09
1.4212769e-08
-6.7962078e-09
-1.4223887e-08
-3.1880251e-09
-2.4374233e-09
3.591252e-09
3.4890326e-09
6.7010611e-10
-3.5211419e-10
5.563294e-11
7.2716977e-10
7.2799132e-09
5.5163802e-09
-6.4692901e-09
-5.3586124e-09
1.3886948e-08
1.2754745e-08
-1.3125065e-08
-1.2454513e-08
1.689502e-08
1.6585655e-08
-1.6263836e-08
-1.6333309e-08
1.4227635e-08
1.4799104e-08
-1.3787327e-08
-1.4594898e-08
8.1456982e-09
9.2229162e-09
-7.8988039e-09
-9.0795326e-09
1.7472872e-09
2.8415348e-09
-1.6661818e-09
-2.7663825e-09
-3.1688753e-09
-2.3458238e-09
3.1245235e-09
2.355214e-09
-6.0442506e-09
-5.5748054e-09
5.9199101e-09
5.5294843e-09
-7.089341e-09
-6.9285019e-09
6.9243612e-09
6.842782e-09
-6.8322194e-09
-6.8799052e-09
6.655381e-09
6.7682652e-09
-5.8228907e-09
-5.9794359e-09
5.6522405e-09
5.8543237e-09
-4.490622e-09
-4.6772955e-09
4.3354704e-09
4.5481138e-09
-3.1087469e-09
-3.2731506e-09
2.9725612e-09
3.1466544e-09
-1.8246433e-09
-1.9354746e-09
1.7076995e-09
1.8160341e-09
-6.8907098e-10
-7.3011576e-10
5.9036403e-10
6.2044523e-10
2.9677327e-10
3.3679829e-10
-3.7887658e-10
-4.3463997e-10
1.1601804e-09
1.2886854e-09
-1.2275626e-09
-1.3735738e-09
1.9321439e-09
2.1625318e-09
-1.9862952e-09
-2.2342296e-09
2.6423048e-09
2.9900266e-09
-2.6844329e-09
-3.0486462e-09
3.3098937e-09
3.7982333e-09
-3.3411128e-09
-3.8442121e-09
3.9452209e-09
4.6060108e-09
-3.9665883e-09
-4.6401376e-09
4.5486978e-09
5.4205755e-09
-4.5614113e-09
-5.4439726e-09
5.1202553e-09
6.2467822e-09
-5.1257077e-09
-6.2608657e-09
5.6222979e-09
7.0732066e-09
-5.6220605e-09
-7.0796196e-09
6.0502857e-09
7.8703664e-09
-6.0460625e-09
-7.8708907e-09
6.3624413e-09
8.6465183e-09
-6.3559993e-09
-8.6429861e-09
6.5360341e-09
9.3613479e-09
-6.5291263e-09
-9.3555533e-09
6.5239901e-09
9.9705642e-09
-6.5182828e-09
-9.9641972e-09
6.3005364e-09
1.0437276e-08
-6.2975529e-09
-1.0431864e-08
5.7962386e-09
1.0743491e-08
-5.7973032e-09
-1.0740353e-08
5.0220194e-09
1.0813051e-08
-5.0282269e-09
-1.0813278e-08
3.8606478e-09
1.0601282e-08
-3.8728455e-09
-1.0605726e-08
2.5020593e-09
9.963066e-09
-2.5208231e-09
-9.9723391e-09
8.1361457e-10
9.1870489e-09
-8.3924958e-10
-9.2015305e-09
-1.3022028e-09
7.7993823e-09
1.2696615e-09
-7.8192295e-09
-3.7057689e-09
5.9976201e-09
3.6665624e-09
-6.022777e-09
-6.2406153e-09
3.6551742e-09
6.1952577e-09
-3.6853796e-09
-8.8437954e-09
8.7961994e-10
8.7930778e-09
-9.1440977e-10
-1.1435735e-08
-2.316291e-09
1.1380722e-08
2.2775846e-09
-1.3811808e-08
-5.8996308e-09
1.375383e-08
5.8578721e-09
-1.5979685e-08
-9.9243488e-09
1.5920321e-08
9.8805957e-09
-1.7611032e-08
-1.4084139e-08
1.7552072e-08
1.4039632e-08
-1.8604629e-08
-1.8265054e-08
1.8548004e-08
1.8221176e-08
-1.8541307e-08
-2.2545148e-08
1.8488997e-08
2.2503364e-08
-1.8136767e-08
-2.597614e-08
1.8090647e-08
2.5937892e-08
-1.7143353e-08
-2.7809376e-08
1.710497e-08
2.7775931e-08
-1.4469082e-08
-3.0057217e-08
1.4439407e-08
3.0029473e-08
-1.1289264e-08
-3.0294714e-08
1.1268388e-08
3.0272991e-08
-7.7179691e-09
-2.9445389e-08
7.7047795e-09
2.9429187e-08
-3.9120425e-09
-2.6258149e-08
3.9039686e-09
2.6245956e-08
1.0495828e-09
-2.0668142e-08
-1.0566448e-09
2.0657455e-08
4.743679e-09
-1.3837937e-08
-4.7549268e-09
1.3825651e-08
8.0817021e-09
-5.9807391e-09
-8.1021052e-09
5.9640568e-09
1.0896169e-08
3.6077776e-09
-1.0929907e-08
-3.6297121e-09
1.1916559e-08
1.3088089e-08
-1.1966957e-08
-1.3112205e-08
1.193646e-08
1.9799711e-08
-1.2009676e-08
-1.9812916e-08
1.0199533e-08
1.9529527e-08
-1.0161309e-08
-1.953829e-08
6.8542792e-09
1.4193307e-08
-6.6419579e-09
-1.4219685e-08
-2.372854e-09
-1.7683206e-09
2.8213758e-09
2.57134e-09
5.8095728e-10
1.6054362e-10
-4.9025715e-10
2.8563823e-10
6.5196699e-09
5.4763166e-09
-6.4074276e-09
-5.2505722e-09
1.3449695e-08
1.2590787e-08
-1.3218061e-08
-1.2417303e-08
1.6602248e-08
1.63499e-08
-1.6318308e-08
-1.6242266e-08
1.4011165e-08
1.4541805e-08
-1.3760344e-08
-1.4476205e-08
8.0461404e-09
9.0047603e-09
-7.871562e-09
-8.9879568e-09
1.7469493e-09
2.6988698e-09
-1.6576949e-09
-2.7277648e-09
-3.1025403e-09
-2.4119023e-09
3.1184946e-09
2.3452106e-09
-5.942744e-09
-5.5827823e-09
5.9047008e-09
5.4884385e-09
-6.9789336e-09
-6.8983078e-09
6.9069759e-09
6.7878622e-09
-6.7312668e-09
-6.8345217e-09
6.641965e-09
6.7182903e-09
-5.7375781e-09
-5.929877e-09
5.6425538e-09
5.8152405e-09
-4.4249092e-09
-4.627834e-09
4.33138e-09
4.5193757e-09
-3.0606313e-09
-3.2314515e-09
2.9725198e-09
3.1315091e-09
-1.7904613e-09
-1.900874e-09
1.7095297e-09
1.8104839e-09
-6.6802227e-10
-7.0152033e-10
5.9474013e-10
6.2115629e-10
3.0966041e-10
3.5895024e-10
-3.7510399e-10
-4.2944417e-10
1.1667086e-09
1.3070584e-09
-1.2238526e-09
-1.3677644e-09
1.9331872e-09
2.1772469e-09
-1.9817112e-09
-2.2279225e-09
2.6388048e-09
3.0031046e-09
-2.6785989e-09
-3.0437109e-09
3.3024677e-09
3.8091934e-09
-3.3336611e-09
-3.8399963e-09
3.9343005e-09
4.6141484e-09
-3.9573967e-09
-4.6357533e-09
4.5345855e-09
5.4283519e-09
-4.550375e-09
-5.4417107e-09
5.0931989e-09
6.2454408e-09
-5.1027391e-09
-6.2518349e-09
5.594706e-09
7.0716559e-09
-5.5992784e-09
-7.0726392e-09
6.0223629e-09
7.8796629e-09
-6.0233971e-09
-7.8769865e-09
6.3344081e-09
8.6443675e-09
-6.3333948e-09
-8.6398974e-09
6.4970346e-09
9.3586823e-09
-6.4954461e-09
-9.3543053e-09
6.4853859e-09
9.9560737e-09
-6.4845977e-09
-9.9536201e-09
6.2515316e-09
1.043289e-08
-6.2527608e-09
-1.0434058e-08
5.7593566e-09
1.0726714e-08
-5.7636152e-09
-1.0733005e-08
4.9754284e-09
1.0783547e-08
-4.9834974e-09
-1.0796221e-08
3.8602155e-09
1.0492117e-08
-3.872634e-09
-1.0512152e-08
2.3928629e-09
9.9624971e-09
-2.4099243e-09
-9.9905581e-09
7.0704009e-10
9.0728021e-09
-7.2879974e-10
-9.1092168e-09
-1.4057182e-09
7.7930334e-09
1.3794329e-09
-7.8377746e-09
-3.6948452e-09
5.9879209e-09
3.6644224e-09
-6.0405896e-09
-6.3367746e-09
3.6419007e-09
6.302801e-09
-3.7017142e-09
-8.8248018e-09
8.6263701e-10
8.788047e-09
-9.2842749e-10
-1.141233e-08
-2.3370047e-09
1.137373e-08
2.2667837e-09
-1.3894893e-08
-6.0349046e-09
1.3855528e-08
5.9621623e-09
-1.6058464e-08
-1.0062929e-08
1.6019526e-08
9.9898945e-09
-1.7685945e-08
-1.4114576e-08
1.7648698e-08
1.4043724e-08
-1.8676465e-08
-1.8297587e-08
1.8642167e-08
1.8231533e-08
-1.850032e-08
-2.2578825e-08
1.8470122e-08
2.2520166e-08
-1.8095582e-08
-2.6009763e-08
1.807039e-08
2.5960871e-08
-1.7104106e-08
-2.8951078e-08
1.7084375e-08
2.8913824e-08
-1.4434359e-08
-3.0086254e-08
1.4419877e-08
3.0061691e-08
-1.1262014e-08
-3.0318869e-08
1.1251655e-08
3.0306925e-08
-7.701307e-09
-2.9462816e-08
7.6928087e-09
2.9461968e-08
-2.7993789e-09
-2.6267044e-08
2.7892382e-09
2.6274089e-08
-7.2812006e-11
-2.1776442e-08
5.6459061e-11
2.1786594e-08
4.7137041e-09
-1.3825261e-08
-4.7411207e-09
1.3832731e-08
8.0352113e-09
-5.9559398e-09
-8.0771148e-09
5.9551842e-09
9.7264225e-09
3.6432249e-09
-9.7826014e-09
-3.6553859e-09
1.1847913e-08
1.3124659e-08
-1.1912024e-08
-1.3146233e-08
1.297241e-08
1.8698051e-08
-1.3024128e-08
-1.8714238e-08
1.014038e-08
2.0639274e-08
-1.0142923e-08
-2.0645708e-08
6.8148438e-09
1.4212769e-08
-6.7962078e-09
-1.4223887e-08
)
;

boundaryField
{
    movingWall
    {
        type            calculated;
        value           nonuniform List<scalar> 
16
(
6.0583263e-09
6.0217836e-09
6.0583263e-09
6.0217836e-09
1.2909188e-08
1.2930338e-08
1.2909188e-08
1.2930338e-08
-5.7971643e-09
-6.0173112e-09
-5.7971646e-09
-6.0173113e-09
-1.2947001e-08
-1.2947133e-08
-1.2947001e-08
-1.2947133e-08
)
;
    }
    CPLReceiveMD
    {
        type            calculated;
        value           nonuniform List<scalar> 
16
(
7.2623573e-09
-2.9829873e-09
-4.4329891e-09
-3.0850433e-09
-2.7230823e-09
-2.2921294e-09
-2.9718817e-09
-2.2874443e-09
4.763763e-09
3.8416221e-09
4.8095173e-09
3.8490526e-09
4.6216083e-09
3.2195198e-09
4.3793779e-09
3.224459e-09
)
;
    }
    streamwiseIn
    {
        type            cyclic;
    }
    streamwiseOut
    {
        type            cyclic;
    }
    front
    {
        type            cyclic;
    }
    back
    {
        type            cyclic;
    }
}


// ************************************************************************* //
