/*--------------------------------*- C++ -*----------------------------------*\
| =========                 |                                                 |
| \\      /  F ield         | OpenFOAM: The Open Source CFD Toolbox           |
|  \\    /   O peration     | Version:  3.0.x                                 |
|   \\  /    A nd           | Web:      www.OpenFOAM.org                      |
|    \\/     M anipulation  |                                                 |
\*---------------------------------------------------------------------------*/
FoamFile
{
    version     2.0;
    format      ascii;
    class       volScalarField;
    location    "100";
    object      sigmaxx;
}
// * * * * * * * * * * * * * * * * * * * * * * * * * * * * * * * * * * * * * //

dimensions      [0 2 -2 0 0 0 0];

internalField   nonuniform List<scalar> 
960
(
-4.8057778e-10
2.6565062e-09
-3.5267018e-09
-3.201017e-09
4.7659499e-10
8.1797096e-10
-1.2603325e-09
-1.000605e-09
-4.8798088e-09
-5.2865104e-09
5.4239188e-09
5.1112394e-09
-1.204454e-08
-1.2484054e-08
1.2456641e-08
1.2233408e-08
-1.6012551e-08
-1.6507123e-08
1.6085911e-08
1.6285581e-08
-1.3738639e-08
-1.476439e-08
1.3803602e-08
1.4598209e-08
-7.963873e-09
-9.2614743e-09
8.0601554e-09
9.1524359e-09
-1.7571278e-09
-2.9466559e-09
1.8799926e-09
2.8914321e-09
3.0698275e-09
2.2029754e-09
-2.9284368e-09
-2.2113092e-09
5.9170937e-09
5.4272757e-09
-5.7675086e-09
-5.3988469e-09
6.9691994e-09
6.7889251e-09
-6.8222626e-09
-6.7349781e-09
6.731983e-09
6.760708e-09
-6.5959208e-09
-6.6915285e-09
5.7435259e-09
5.8824333e-09
-5.622933e-09
-5.8062316e-09
4.4345375e-09
4.6008532e-09
-4.3308762e-09
-4.523562e-09
3.0711413e-09
3.2193267e-09
-2.9838015e-09
-3.1449192e-09
1.8024559e-09
1.8999813e-09
-1.7298103e-09
-1.8307257e-09
6.8286548e-10
7.1394454e-10
-6.2307654e-10
-6.5103007e-10
-2.8845688e-10
-3.3461601e-10
3.371729e-10
3.9024778e-10
-1.1359064e-09
-1.2673169e-09
1.1752049e-09
1.3151655e-09
-1.8906633e-09
-2.1226005e-09
1.9218412e-09
2.1627095e-09
-2.5826368e-09
-2.9296294e-09
2.606706e-09
2.9622538e-09
-3.2298288e-09
-3.7152641e-09
3.2476333e-09
3.7408073e-09
-3.8424391e-09
-4.4989358e-09
3.8547171e-09
4.51795e-09
-4.4207127e-09
-5.285931e-09
4.428226e-09
5.2991111e-09
-4.9729674e-09
-6.0853483e-09
4.9765325e-09
6.0935085e-09
-5.4404818e-09
-6.8815012e-09
5.4409719e-09
6.8855478e-09
-5.8376451e-09
-7.6297007e-09
5.8359754e-09
7.6305918e-09
-6.1102925e-09
-8.3673696e-09
6.1073925e-09
8.3660716e-09
-6.2470656e-09
-9.0410693e-09
6.2438459e-09
9.0385208e-09
-6.1911461e-09
-9.595374e-09
6.1884643e-09
9.5924505e-09
-5.9296529e-09
-9.9951983e-09
5.928286e-09
9.9926841e-09
-5.3612969e-09
-1.0248192e-08
5.3619208e-09
1.0246764e-08
-4.5414711e-09
-1.0249703e-08
4.544643e-09
1.0249921e-08
-3.2617717e-09
-9.9607548e-09
3.2679198e-09
9.9630538e-09
-1.9167472e-09
-9.1423554e-09
1.9261659e-09
9.1470482e-09
-2.4035955e-10
-8.4214858e-09
2.5320432e-10
8.4287685e-09
1.9825831e-09
-6.895488e-09
-1.9662926e-09
6.9054423e-09
4.5158356e-09
-4.9960074e-09
-4.4962173e-09
5.0086084e-09
7.1147292e-09
-2.4933158e-09
-7.0920397e-09
2.5084345e-09
9.7477898e-09
3.9236569e-10
-9.7224234e-09
-3.7495962e-10
1.2375231e-08
3.6546603e-09
-1.2347719e-08
-3.6352984e-09
1.4728305e-08
7.2771032e-09
-1.4699312e-08
-7.256217e-09
1.6977281e-08
1.1453103e-08
-1.6947595e-08
-1.1431222e-08
1.8625124e-08
1.569664e-08
-1.8595641e-08
-1.5674383e-08
1.9621225e-08
1.9950739e-08
-1.959291e-08
-1.9928798e-08
1.9256695e-08
2.4587297e-08
-1.9230539e-08
-2.4566403e-08
1.9054425e-08
2.7967132e-08
-1.9031363e-08
-2.7948006e-08
1.8557717e-08
2.8883749e-08
-1.8538525e-08
-2.8867026e-08
1.5556242e-08
3.167201e-08
-1.5541404e-08
-3.1658138e-08
1.2301993e-08
3.1790759e-08
-1.2291554e-08
-3.1779897e-08
8.8520054e-09
3.1366096e-08
-8.8454098e-09
-3.1357995e-08
5.2847015e-09
2.8108136e-08
-5.2806646e-09
-2.810204e-08
-5.2479187e-10
2.1984452e-08
5.2832236e-10
-2.1979108e-08
-4.0361797e-09
1.5240669e-08
4.0418031e-09
-1.5234526e-08
-7.3695314e-09
7.98339e-09
7.3797329e-09
-7.9750489e-09
-1.0441105e-08
-1.8038888e-09
1.0457975e-08
1.814856e-09
-1.09513e-08
-1.1537065e-08
1.0976499e-08
1.1549123e-08
-1.0961251e-08
-1.8221556e-08
1.0997859e-08
1.8228159e-08
-1.0092787e-08
-1.8086464e-08
1.0073675e-08
1.8090846e-08
-6.7558198e-09
-1.2089674e-08
6.6496591e-09
1.2102863e-08
2.4891958e-09
2.3428644e-09
-2.7710557e-09
-2.6775714e-09
-3.3302913e-10
2.872059e-10
2.4825626e-10
-4.2631494e-10
-6.3227918e-09
-5.4801738e-09
6.2594504e-09
5.4297567e-09
-1.3342287e-08
-1.2661009e-08
1.3238881e-08
1.2601149e-08
-1.6664226e-08
-1.6524335e-08
1.654317e-08
1.6479585e-08
-1.408827e-08
-1.4671765e-08
1.3982637e-08
1.46375e-08
-8.1761691e-09
-9.138723e-09
8.1035952e-09
9.1199037e-09
-1.900842e-09
-2.8396261e-09
1.865576e-09
2.8390225e-09
2.9536563e-09
2.2720837e-09
-2.956266e-09
-2.2551457e-09
5.8103497e-09
5.454848e-09
-5.7886154e-09
-5.4238434e-09
6.8693764e-09
6.7850515e-09
-6.832262e-09
-6.7445654e-09
6.6424772e-09
6.7361581e-09
-6.5974808e-09
-6.6903879e-09
5.6673991e-09
5.8505001e-09
-5.619867e-09
-5.8028551e-09
4.3733043e-09
4.5692186e-09
-4.3265974e-09
-4.5221517e-09
3.0235936e-09
3.1868302e-09
-2.9795637e-09
-3.1418438e-09
1.7698465e-09
1.87302e-09
-1.7293414e-09
-1.8312666e-09
6.6045704e-10
6.9169239e-10
-6.2372632e-10
-6.5397194e-10
-3.0278724e-10
-3.5312609e-10
3.3559041e-10
3.8663703e-10
-1.1441141e-09
-1.2830216e-09
1.1727525e-09
1.3122009e-09
-1.8918641e-09
-2.1340672e-09
1.9161972e-09
2.1586368e-09
-2.5775634e-09
-2.9396893e-09
2.5975351e-09
2.9595011e-09
-3.2189834e-09
-3.7221442e-09
3.2346486e-09
3.7372387e-09
-3.8261761e-09
-4.5007253e-09
3.8377783e-09
4.51134e-09
-4.3992837e-09
-5.2872735e-09
4.4072177e-09
5.2938406e-09
-4.9265872e-09
-6.0686167e-09
4.9313846e-09
6.0717479e-09
-5.3937123e-09
-6.8645154e-09
5.3960162e-09
6.8649694e-09
-5.790623e-09
-7.6346701e-09
5.7911505e-09
7.6333103e-09
-6.0631522e-09
-8.3498885e-09
6.0626519e-09
8.3476402e-09
-6.177755e-09
-9.0232698e-09
6.1769635e-09
9.0210737e-09
-6.1220019e-09
-9.5549729e-09
6.1216078e-09
9.5537416e-09
-5.8386413e-09
-9.9764586e-09
5.839255e-09
9.9770391e-09
-5.2929727e-09
-1.0206588e-08
5.2951005e-09
1.020973e-08
-4.4516364e-09
-1.0185074e-08
4.4556694e-09
1.0191408e-08
-3.2615812e-09
-9.7397777e-09
3.2677889e-09
9.7497928e-09
-1.6957344e-09
-9.1421001e-09
1.7042639e-09
9.1561286e-09
-2.0652524e-11
-8.1979497e-09
3.1532075e-11
8.2161563e-09
2.2007647e-09
-6.8923293e-09
-2.1876227e-09
6.9146987e-09
4.5103659e-09
-4.9911694e-09
-4.4951556e-09
5.0175026e-09
7.3292367e-09
-2.4866868e-09
-7.312251e-09
2.5165931e-09
9.7382893e-09
4.0085159e-10
-9.7199121e-09
-3.6795635e-10
1.2363526e-08
3.6650126e-09
-1.2344225e-08
-3.6299021e-09
1.493628e-08
7.5111703e-09
-1.4916596e-08
-7.4747996e-09
1.7183103e-08
1.1688825e-08
-1.7163634e-08
-1.1652308e-08
1.8829013e-08
1.5711857e-08
-1.881039e-08
-1.5676431e-08
1.9823575e-08
1.9967005e-08
-1.9806426e-08
-1.9933978e-08
1.9236201e-08
2.4604134e-08
-1.9221102e-08
-2.4574805e-08
1.9033832e-08
2.7983943e-08
-1.9021236e-08
-2.7959497e-08
1.8538094e-08
3.1118941e-08
-1.8528229e-08
-3.1100313e-08
1.553888e-08
3.1686528e-08
-1.5531639e-08
-3.1674247e-08
1.2288368e-08
3.1802836e-08
-1.2283188e-08
-3.1796864e-08
8.8436735e-09
3.137481e-08
-8.8394248e-09
-3.1374386e-08
3.0640296e-09
2.8112583e-08
-3.0589592e-09
-2.8116106e-08
1.7007466e-09
2.4202942e-08
-1.6925697e-09
-2.4208018e-08
-4.0211922e-09
1.5234331e-08
4.0349005e-09
-1.5238066e-08
-7.3462859e-09
7.9709903e-09
7.3672372e-09
-7.9706125e-09
-8.1918915e-09
-1.8216125e-09
8.219981e-09
1.827693e-09
-1.0916977e-08
-1.155535e-08
1.0949033e-08
1.1566137e-08
-1.3143565e-08
-1.6006386e-08
1.3169425e-08
1.6014479e-08
-1.0063211e-08
-2.0305678e-08
1.0064482e-08
2.0308895e-08
-6.7361022e-09
-1.2099405e-08
6.7267842e-09
1.2104964e-08
3.29917e-09
2.6452639e-09
-3.2247548e-09
-3.2330224e-09
8.2426934e-10
8.9372332e-10
-6.1124345e-10
-1.0006317e-09
-5.966119e-09
-5.1929941e-09
6.0884073e-09
5.2502104e-09
-1.2904883e-08
-1.2354623e-08
1.295436e-08
1.2349458e-08
-1.6415965e-08
-1.6392651e-08
1.6424804e-08
1.6397562e-08
-1.4027911e-08
-1.4679661e-08
1.4041001e-08
1.4687142e-08
-8.1561128e-09
-9.2107573e-09
8.1964363e-09
9.2271926e-09
-1.8853396e-09
-2.914687e-09
1.9589352e-09
2.9467289e-09
2.9831695e-09
2.2254974e-09
-2.8813342e-09
-2.1756189e-09
5.8614704e-09
5.4395824e-09
-5.7433833e-09
-5.3742761e-09
6.9317237e-09
6.7987531e-09
-6.8096661e-09
-6.7226071e-09
6.7055917e-09
6.7638694e-09
-6.5889384e-09
-6.6821023e-09
5.7263737e-09
5.8828383e-09
-5.6207506e-09
-5.8000969e-09
4.4208891e-09
4.6019244e-09
-4.3286299e-09
-4.5216756e-09
3.0600699e-09
3.2172669e-09
-2.9813063e-09
-3.1419221e-09
1.7954764e-09
1.8995326e-09
-1.7292246e-09
-1.8305166e-09
6.7722078e-10
7.1319246e-10
-6.2218577e-10
-6.5126299e-10
-2.9092075e-10
-3.3542683e-10
3.3612669e-10
3.8972976e-10
-1.137678e-09
-1.2680754e-09
1.1744081e-09
1.3145826e-09
-1.8919332e-09
-2.1232633e-09
1.9212322e-09
2.1621659e-09
-2.5835368e-09
-2.9301858e-09
2.6062268e-09
2.9617815e-09
-3.230462e-09
-3.7157179e-09
3.2472609e-09
3.7404123e-09
-3.842883e-09
-4.4992976e-09
3.8544372e-09
4.5176286e-09
-4.4210241e-09
-5.2862151e-09
4.4280184e-09
5.2988533e-09
-4.9731855e-09
-6.0855687e-09
4.976379e-09
6.0933053e-09
-5.4406349e-09
-6.8816707e-09
5.440859e-09
6.8853898e-09
-5.8377526e-09
-7.6298299e-09
5.8358926e-09
7.6304694e-09
-6.1103678e-09
-8.3674675e-09
6.1073317e-09
8.3659786e-09
-6.247119e-09
-9.0411438e-09
6.243801e-09
9.0384499e-09
-6.1911846e-09
-9.5954302e-09
6.188431e-09
9.5923956e-09
-5.9296802e-09
-9.9952401e-09
5.9282621e-09
9.992643e-09
-5.3613163e-09
-1.0248223e-08
5.3619028e-09
1.0246733e-08
-4.5414852e-09
-1.0249727e-08
4.5446289e-09
1.0249898e-08
-3.2617817e-09
-9.9607726e-09
3.26791e-09
9.9630368e-09
-1.9167552e-09
-9.1423681e-09
1.9261588e-09
9.1470354e-09
-2.4036553e-10
-8.4214957e-09
2.53199e-10
8.4287589e-09
1.9825792e-09
-6.8954954e-09
-1.9662968e-09
6.9054352e-09
4.5158329e-09
-4.9960124e-09
-4.496221e-09
5.0086026e-09
7.1147271e-09
-2.493319e-09
-7.0920419e-09
2.5084301e-09
9.7477884e-09
3.9236315e-10
-9.722425e-09
-3.7496208e-10
1.237523e-08
3.6546579e-09
-1.234772e-08
-3.6353003e-09
1.4728304e-08
7.2771014e-09
-1.4699312e-08
-7.2562188e-09
1.697728e-08
1.1453102e-08
-1.6947596e-08
-1.1431223e-08
1.8625124e-08
1.5696639e-08
-1.8595642e-08
-1.5674384e-08
1.9621224e-08
1.9950738e-08
-1.959291e-08
-1.9928799e-08
1.9256695e-08
2.4587296e-08
-1.9230539e-08
-2.4566403e-08
1.9054425e-08
2.7967132e-08
-1.9031364e-08
-2.7948007e-08
1.8557717e-08
2.888375e-08
-1.8538526e-08
-2.8867026e-08
1.5556242e-08
3.167201e-08
-1.5541404e-08
-3.1658138e-08
1.2301993e-08
3.1790759e-08
-1.2291554e-08
-3.1779897e-08
8.852005e-09
3.1366096e-08
-8.8454101e-09
-3.1357995e-08
5.2847016e-09
2.8108136e-08
-5.2806646e-09
-2.8102039e-08
-5.2479139e-10
2.1984452e-08
5.2832243e-10
-2.1979108e-08
-4.0361797e-09
1.5240669e-08
4.0418035e-09
-1.5234526e-08
-7.3695313e-09
7.98339e-09
7.3797329e-09
-7.9750488e-09
-1.0441105e-08
-1.8038888e-09
1.0457974e-08
1.8148561e-09
-1.09513e-08
-1.1537065e-08
1.0976499e-08
1.1549123e-08
-1.0961251e-08
-1.8221556e-08
1.0997859e-08
1.8228159e-08
-1.0092787e-08
-1.8086464e-08
1.0073675e-08
1.8090846e-08
-6.7558199e-09
-1.2089674e-08
6.6496593e-09
1.2102863e-08
2.5353093e-09
2.2972788e-09
-2.7502285e-09
-2.7481792e-09
-2.7155892e-10
2.3057747e-10
2.382335e-10
-5.1362241e-10
-6.3230337e-09
-5.5215715e-09
6.2770395e-09
5.3513345e-09
-1.3387076e-08
-1.2704049e-08
1.3278397e-08
1.2567027e-08
-1.6697828e-08
-1.6561338e-08
1.6560385e-08
1.6465233e-08
-1.4123445e-08
-1.4705846e-08
1.4000674e-08
1.4638805e-08
-8.1936062e-09
-9.15861e-09
8.1078008e-09
9.1234208e-09
-1.9129701e-09
-2.851161e-09
1.8691865e-09
2.8452446e-09
2.9442397e-09
2.2675205e-09
-2.9516934e-09
-2.2492423e-09
5.8051523e-09
5.4522521e-09
-5.785751e-09
-5.4159304e-09
6.8654975e-09
6.7835858e-09
-6.8292003e-09
-6.7359819e-09
6.6415882e-09
6.7392297e-09
-6.5966539e-09
-6.6863574e-09
5.6669304e-09
5.8531042e-09
-5.6191651e-09
-5.7993362e-09
4.3730474e-09
4.5666987e-09
-4.3260643e-09
-4.5148435e-09
3.0234292e-09
3.1880441e-09
-2.9791927e-09
-3.1396516e-09
1.7674859e-09
1.8738361e-09
-1.7268769e-09
-1.8296757e-09
6.6031754e-10
6.9009127e-10
-6.2356801e-10
-6.505737e-10
-3.0289154e-10
-3.5268638e-10
3.3569509e-10
3.8751335e-10
-1.1441951e-09
-1.2827228e-09
1.1728262e-09
1.3128131e-09
-1.8919415e-09
-2.1338735e-09
1.916244e-09
2.159048e-09
-2.5776297e-09
-2.9395696e-09
2.5975525e-09
2.9597712e-09
-3.2190357e-09
-3.7220735e-09
3.2346477e-09
3.7374114e-09
-3.8262162e-09
-4.5006861e-09
3.8377724e-09
4.511448e-09
-4.399313e-09
-5.287254e-09
4.4072115e-09
5.2939069e-09
-4.9266076e-09
-6.0686086e-09
4.931379e-09
6.0717877e-09
-5.3937259e-09
-6.8645131e-09
5.396012e-09
6.8649922e-09
-5.7906317e-09
-7.6346705e-09
5.7911483e-09
7.6333232e-09
-6.0631578e-09
-8.3498901e-09
6.0626506e-09
8.3476483e-09
-6.1777575e-09
-9.0232716e-09
6.1769629e-09
9.021078e-09
-6.1220025e-09
-9.5549744e-09
6.1216084e-09
9.5537438e-09
-5.8386409e-09
-9.9764595e-09
5.8392558e-09
9.9770406e-09
-5.2929719e-09
-1.0206588e-08
5.2951017e-09
1.0209732e-08
-4.4516357e-09
-1.0185074e-08
4.4556709e-09
1.0191409e-08
-3.2615799e-09
-9.7397778e-09
3.2677899e-09
9.7497941e-09
-1.6957334e-09
-9.1420995e-09
1.7042649e-09
9.1561292e-09
-2.0651814e-11
-8.1979498e-09
3.1532454e-11
8.2161566e-09
2.2007655e-09
-6.8923292e-09
-2.187622e-09
6.9146995e-09
4.5103671e-09
-4.9911688e-09
-4.495155e-09
5.017503e-09
7.3292379e-09
-2.4866865e-09
-7.3122505e-09
2.5165932e-09
9.7382896e-09
4.008515e-10
-9.7199116e-09
-3.6795627e-10
1.2363526e-08
3.6650125e-09
-1.2344226e-08
-3.629902e-09
1.4936279e-08
7.5111707e-09
-1.4916596e-08
-7.4747995e-09
1.7183103e-08
1.1688825e-08
-1.7163634e-08
-1.1652308e-08
1.8829014e-08
1.5711857e-08
-1.881039e-08
-1.5676431e-08
1.9823576e-08
1.9967005e-08
-1.9806426e-08
-1.9933978e-08
1.9236201e-08
2.4604134e-08
-1.9221102e-08
-2.4574804e-08
1.9033832e-08
2.7983943e-08
-1.9021236e-08
-2.7959497e-08
1.8538094e-08
3.1118941e-08
-1.8528228e-08
-3.1100313e-08
1.553888e-08
3.1686528e-08
-1.5531639e-08
-3.1674247e-08
1.2288368e-08
3.1802836e-08
-1.2283188e-08
-3.1796864e-08
8.843674e-09
3.137481e-08
-8.8394248e-09
-3.1374386e-08
3.0640296e-09
2.8112583e-08
-3.0589592e-09
-2.8116106e-08
1.7007462e-09
2.4202942e-08
-1.6925696e-09
-2.4208018e-08
-4.0211921e-09
1.5234331e-08
4.0349005e-09
-1.5238066e-08
-7.3462859e-09
7.9709903e-09
7.3672377e-09
-7.9706125e-09
-8.1918915e-09
-1.8216125e-09
8.219981e-09
1.827693e-09
-1.0916977e-08
-1.155535e-08
1.0949033e-08
1.1566137e-08
-1.3143565e-08
-1.6006386e-08
1.3169424e-08
1.6014479e-08
-1.0063211e-08
-2.0305678e-08
1.0064482e-08
2.0308895e-08
-6.7361022e-09
-1.2099405e-08
6.7267842e-09
1.2104964e-08
)
;

boundaryField
{
    movingWall
    {
        type            calculated;
        value           nonuniform List<scalar> 
16
(
-6.3578435e-09
-6.3395721e-09
-6.3578435e-09
-6.3395721e-09
-1.1447614e-08
-1.1458189e-08
-1.1447614e-08
-1.1458189e-08
6.2272624e-09
6.3373359e-09
6.2272626e-09
6.3373359e-09
1.1466521e-08
1.1466587e-08
1.1466521e-08
1.1466587e-08
)
;
    }
    CPLReceiveMD
    {
        type            calculated;
        value           nonuniform List<scalar> 
16
(
-2.2073766e-09
2.8388424e-09
3.921652e-09
2.8914039e-09
2.8475842e-09
2.5956113e-09
2.9124931e-09
2.5568406e-09
-4.0817121e-09
-3.2775015e-09
-3.8338875e-09
-3.2640669e-09
-3.7348933e-09
-3.0099157e-09
-3.678195e-09
-3.0747387e-09
)
;
    }
    streamwiseIn
    {
        type            cyclic;
    }
    streamwiseOut
    {
        type            cyclic;
    }
    front
    {
        type            cyclic;
    }
    back
    {
        type            cyclic;
    }
}


// ************************************************************************* //
