/*--------------------------------*- C++ -*----------------------------------*\
| =========                 |                                                 |
| \\      /  F ield         | OpenFOAM: The Open Source CFD Toolbox           |
|  \\    /   O peration     | Version:  3.0.x                                 |
|   \\  /    A nd           | Web:      www.OpenFOAM.org                      |
|    \\/     M anipulation  |                                                 |
\*---------------------------------------------------------------------------*/
FoamFile
{
    version     2.0;
    format      ascii;
    class       volScalarField;
    location    "100";
    object      sigmazz;
}
// * * * * * * * * * * * * * * * * * * * * * * * * * * * * * * * * * * * * * //

dimensions      [0 2 -2 0 0 0 0];

internalField   nonuniform List<scalar> 
960
(
-3.3281818e-09
-3.1557983e-10
-1.2704057e-10
-3.5283861e-10
-5.3344052e-10
-4.0964081e-10
9.0149389e-10
3.8824553e-10
8.533489e-10
-1.7007755e-10
7.459608e-10
2.6700683e-10
7.3144882e-10
-2.0576331e-10
5.4148861e-10
2.4501981e-10
5.7174589e-10
-1.9129279e-11
1.504755e-10
5.9756452e-11
5.2723609e-10
3.435184e-11
4.2164396e-12
1.8635057e-11
5.2631591e-10
1.139635e-10
-1.0249203e-10
-4.674751e-11
4.9350576e-10
1.7696189e-10
-1.4234441e-10
-9.2949775e-11
4.2822761e-10
2.0721229e-10
-1.2751819e-10
-1.06399e-10
3.5150171e-10
2.0634794e-10
-9.0083049e-11
-9.2627682e-11
2.7546542e-10
1.8980971e-10
-4.9392993e-11
-6.9290557e-11
2.092614e-10
1.637226e-10
-1.6730942e-11
-4.2648848e-11
1.5573007e-10
1.3479677e-10
5.4589194e-12
-1.8224514e-11
1.1115283e-10
1.0668286e-10
2.1875278e-11
1.9240797e-12
7.7594963e-11
7.9518121e-11
3.1086416e-11
1.9082804e-11
5.0350308e-11
5.5422145e-11
3.7854995e-11
3.2425031e-11
2.6749975e-11
3.2140061e-11
4.4402031e-11
4.4962821e-11
5.6652554e-12
1.0379404e-11
5.1359333e-11
5.6016552e-11
-1.4208843e-11
-1.1614769e-11
5.958531e-11
6.7589185e-11
-3.4236018e-11
-3.2430233e-11
6.9860486e-11
7.8646642e-11
-5.4468931e-11
-5.4672285e-11
8.1789868e-11
9.186844e-11
-7.6338613e-11
-7.8628791e-11
9.6521869e-11
1.0758206e-10
-1.0011093e-10
-1.0380414e-10
1.1413003e-10
1.2535358e-10
-1.2606788e-10
-1.3219142e-10
1.3485624e-10
1.4725088e-10
-1.4591022e-10
-1.5960155e-10
1.5040997e-10
1.6915139e-10
-1.8082393e-10
-1.9034127e-10
1.8199962e-10
1.9541301e-10
-2.1192513e-10
-2.3965359e-10
2.1075873e-10
2.4129934e-10
-2.5163227e-10
-2.7839991e-10
2.4910209e-10
2.7765641e-10
-2.8859394e-10
-3.1972433e-10
2.8564622e-10
3.1758246e-10
-3.3257067e-10
-3.7478135e-10
3.3008892e-10
3.7215563e-10
-3.7068484e-10
-4.4177754e-10
3.6946511e-10
4.3948112e-10
-4.3479719e-10
-4.950793e-10
4.3552955e-10
4.9381063e-10
-4.8044223e-10
-5.6318559e-10
4.8369405e-10
5.6352008e-10
-5.9879888e-10
-6.4040804e-10
6.050058e-10
6.4279152e-10
-5.8525404e-10
-8.206242e-10
5.9471611e-10
8.2537848e-10
-5.7321212e-10
-7.6549897e-10
5.8608881e-10
7.7282633e-10
-6.8034979e-10
-9.0384744e-10
6.966638e-10
9.1383415e-10
-8.1004447e-10
-1.0015794e-09
8.2968014e-10
1.0142039e-09
-8.7409742e-10
-1.1618352e-09
8.9679957e-10
1.176971e-09
-9.0398263e-10
-1.2719684e-09
9.2935842e-10
1.2893868e-09
-9.3948703e-10
-1.3383558e-09
9.6700601e-10
1.3577265e-09
-9.1648987e-10
-1.3774624e-09
9.4548802e-10
1.398355e-09
-9.9759123e-10
-1.5287476e-09
1.0272802e-09
1.5506333e-09
-1.0140882e-09
-1.6124964e-09
1.0435741e-09
1.6347563e-09
-1.0165924e-09
-1.6856815e-09
1.0449087e-09
1.7076251e-09
-7.1538626e-10
-2.042145e-09
7.4154391e-10
2.0630406e-09
-9.176565e-10
-1.9909904e-09
9.4071886e-10
2.0101174e-09
-1.4143639e-09
-1.074373e-09
1.4335567e-09
1.0910969e-09
-1.0871592e-09
-1.6147922e-09
1.1019974e-09
1.6286651e-09
-1.0127282e-09
-1.4960435e-09
1.0231673e-09
1.5069064e-09
-1.1340354e-09
-1.9207064e-09
1.1406312e-09
1.9288079e-09
-1.372659e-09
-1.8499863e-09
1.3766961e-09
1.8560831e-09
-5.2479181e-10
-1.3163099e-09
5.2832247e-10
1.3216543e-09
-7.0749935e-10
-1.4027323e-09
7.1312283e-10
1.4088759e-09
-7.1217076e-10
-2.0026509e-09
7.2237235e-10
2.0109921e-09
-4.5506382e-10
-1.8038888e-09
4.7193375e-10
1.8148561e-09
-9.6525881e-10
-1.5510239e-09
9.9045806e-10
1.5630819e-09
-9.7520985e-10
-1.5781548e-09
1.0118178e-09
1.5847572e-09
-1.0674614e-10
-1.4430629e-09
8.7634153e-11
1.447444e-09
-9.8459241e-11
-2.103633e-09
-7.7014266e-12
2.1168222e-09
-2.0550175e-10
-5.5622878e-10
-5.7674744e-11
1.2274029e-10
-2.951897e-10
-4.2256764e-10
2.344661e-10
1.635506e-10
-1.6635904e-10
4.2183209e-12
1.2327153e-10
-1.6936503e-10
-3.7302016e-11
5.2657697e-11
-5.1828047e-11
-2.1307792e-10
1.2875065e-10
1.5612526e-10
-2.4075106e-10
-2.8545123e-10
1.3622153e-10
1.1689033e-10
-2.3657462e-10
-2.1963548e-10
1.6943314e-10
1.1619594e-10
-2.390395e-10
-1.8859022e-10
1.8101743e-10
1.2191681e-10
-2.1459633e-10
-1.6324812e-10
1.6738472e-10
1.2119692e-10
-1.6894734e-10
-1.343943e-10
1.4375386e-10
1.1147819e-10
-1.212602e-10
-1.0217393e-10
1.169819e-10
9.9250038e-11
-7.9230573e-11
-7.4001697e-11
9.2701128e-11
8.534678e-11
-4.7138026e-11
-5.0063283e-11
7.2658751e-11
6.9653523e-11
-2.4620173e-11
-2.9108982e-11
5.3235947e-11
5.4058461e-11
-6.0919117e-12
-1.1739482e-11
3.8168203e-11
4.0261134e-11
6.2231063e-12
1.5677242e-12
2.2571443e-11
2.4983173e-11
1.8220165e-11
1.4701014e-11
8.227172e-12
8.9243552e-12
2.872047e-11
2.746719e-11
-6.4048165e-12
-7.1831072e-12
3.9371496e-11
3.9854046e-11
-2.2265243e-11
-2.4926572e-11
5.1021745e-11
5.3580476e-11
-4.1067473e-11
-4.3744992e-11
6.5481565e-11
6.7987903e-11
-6.1053391e-11
-6.3764273e-11
8.1076524e-11
8.3373101e-11
-8.3353473e-11
-8.7260001e-11
9.9049047e-11
1.0222747e-10
-1.0803621e-10
-1.1354775e-10
1.1965469e-10
1.2408147e-10
-1.3524531e-10
-1.4115013e-10
1.4318682e-10
1.4766426e-10
-1.6657796e-10
-1.7686488e-10
1.7137788e-10
1.7996028e-10
-2.0097553e-10
-2.0716453e-10
2.0327929e-10
2.075934e-10
-2.317313e-10
-2.4500772e-10
2.322577e-10
2.436297e-10
-2.7125224e-10
-2.9448859e-10
2.7075088e-10
2.9222688e-10
-3.1928069e-10
-3.3541949e-10
3.1848854e-10
3.3321329e-10
-3.6338716e-10
-4.011063e-10
3.6299302e-10
3.998674e-10
-4.1289386e-10
-4.5643634e-10
4.1350801e-10
4.570111e-10
-4.663871e-10
-5.2013118e-10
4.6851586e-10
5.2326921e-10
-5.2379398e-10
-5.9847646e-10
5.2782828e-10
6.0480809e-10
-5.9863695e-10
-7.5234237e-10
6.0484617e-10
7.6235531e-10
-6.9713009e-10
-8.2040045e-10
7.0566123e-10
8.3442745e-10
-6.8638818e-10
-8.7485383e-10
6.9726937e-10
8.9305946e-10
-7.9504706e-10
-9.0070532e-10
8.0819061e-10
9.2307408e-10
-8.1552212e-10
-9.9675344e-10
8.3073382e-10
1.0230862e-09
-9.9246352e-10
-1.1552149e-09
1.0094505e-09
1.1851211e-09
-9.1348719e-10
-1.2634887e-09
9.3186554e-10
1.2963839e-09
-9.5119467e-10
-1.3280079e-09
9.7049629e-10
1.3631185e-09
-1.0413854e-09
-1.4762665e-09
1.0610696e-09
1.5126374e-09
-1.1246387e-09
-1.6258964e-09
1.1441084e-09
1.6624135e-09
-1.1430684e-09
-1.597281e-09
1.1616919e-09
1.6327069e-09
-1.1471103e-09
-1.6694173e-09
1.1642597e-09
1.7024443e-09
-7.3588084e-10
-2.0253087e-09
7.5097988e-10
2.0546378e-09
-9.382494e-10
-1.9741799e-09
9.5084611e-10
1.9986262e-09
-1.4339878e-09
-2.1678622e-09
1.4438534e-09
2.18649e-09
-1.1045211e-09
-1.6002747e-09
1.1117624e-09
1.6125559e-09
-1.0263534e-09
-1.4839672e-09
1.0315335e-09
1.4899391e-09
-1.1423673e-09
-1.9119933e-09
1.1466161e-09
1.9124174e-09
-2.6465064e-10
-1.8455394e-09
2.697211e-10
1.8420167e-09
-1.6279337e-09
-2.4265001e-09
1.6361106e-09
2.421424e-09
-6.9251186e-10
-1.4090704e-09
7.062202e-10
1.4053356e-09
-6.8892533e-10
-2.0150505e-09
7.0987667e-10
2.0154284e-09
-1.5345309e-09
-1.8216125e-09
1.5626204e-09
1.827693e-09
-9.3093583e-10
-1.5693089e-09
9.629921e-10
1.5800962e-09
1.7115585e-10
-2.6916649e-09
-1.4529668e-10
2.6997582e-09
-7.7169703e-11
-3.3359612e-10
7.8441327e-11
3.3681284e-10
-7.8741648e-11
-2.113364e-09
6.942364e-11
2.1189231e-09
-1.111449e-10
-2.0784059e-10
-3.6649712e-10
-2.5601023e-10
-1.4943755e-09
-5.4160914e-10
5.5561051e-10
2.7346195e-10
-1.3137942e-09
-3.233861e-10
3.8088281e-10
1.0840201e-10
-9.8206442e-10
-4.0012162e-10
1.7070438e-10
1.0505442e-10
-4.7905551e-10
-1.9300427e-10
-1.6096751e-10
-6.4253689e-11
-1.9972391e-10
-1.1944293e-10
-2.536745e-10
-9.2244341e-11
1.0414535e-11
-1.2158973e-11
-2.9763243e-10
-1.4766001e-10
1.3805239e-10
7.3152191e-11
-2.9275337e-10
-1.8034632e-10
1.857058e-10
1.2032639e-10
-2.4318926e-10
-1.7959506e-10
1.8278028e-10
1.3522303e-10
-1.7652677e-10
-1.5520821e-10
1.5761723e-10
1.2974882e-10
-1.1469518e-10
-1.2017491e-10
1.2662767e-10
1.1603584e-10
-6.6442616e-11
-8.6162979e-11
9.6516974e-11
9.6597606e-11
-3.1489912e-11
-5.4226776e-11
6.9732907e-11
7.537112e-11
-6.8405363e-12
-2.6438132e-11
4.867699e-11
5.5883686e-11
8.7450842e-12
-4.732298e-12
2.9166895e-11
3.5941983e-11
2.1525118e-11
1.4482493e-11
1.1850202e-11
1.69233e-11
3.1821737e-11
3.0817762e-11
-5.852516e-12
-1.3714616e-12
4.2749885e-11
4.4910212e-11
-2.2502376e-11
-2.0609949e-11
5.3154516e-11
5.8991259e-11
-4.0210662e-11
-3.9268487e-11
6.5063034e-11
7.2063695e-11
-5.8768019e-11
-5.9840757e-11
7.8206169e-11
8.6864637e-11
-7.9431659e-11
-8.2515387e-11
9.3851851e-11
1.0379981e-10
-1.0233789e-10
-1.0671323e-10
1.1215104e-10
1.2250899e-10
-1.2767376e-10
-1.3436048e-10
1.3339293e-10
1.4511928e-10
-1.4706983e-10
-1.6121356e-10
1.4932869e-10
1.6756049e-10
-1.8166299e-10
-1.9153589e-10
1.8120151e-10
1.942298e-10
-2.1253316e-10
-2.4053645e-10
2.1016989e-10
2.4042129e-10
-2.5207344e-10
-2.7905088e-10
2.4866754e-10
2.7700754e-10
-2.8891512e-10
-3.2020408e-10
2.8532527e-10
3.171034e-10
-3.3280543e-10
-3.7513399e-10
3.2985176e-10
3.7180161e-10
-3.7085615e-10
-4.4203599e-10
3.6929079e-10
4.3922108e-10
-4.3492231e-10
-4.9526834e-10
4.3540042e-10
4.9361983e-10
-4.8053413e-10
-5.6332448e-10
4.8359796e-10
5.6338012e-10
-5.9886605e-10
-6.4050975e-10
6.049355e-10
6.426894e-10
-5.8530408e-10
-8.2069789e-10
5.9466433e-10
8.2530369e-10
-5.7324903e-10
-7.6555316e-10
5.8605058e-10
7.7277163e-10
-6.8037641e-10
-9.0388692e-10
6.9663531e-10
9.1379428e-10
-8.1006398e-10
-1.0016077e-09
8.2965856e-10
1.0141744e-09
-8.7411177e-10
-1.1618553e-09
8.9678422e-10
1.1769494e-09
-9.0399305e-10
-1.2719831e-09
9.2934714e-10
1.2893719e-09
-9.3949497e-10
-1.3383669e-09
9.6699777e-10
1.3577157e-09
-9.1649576e-10
-1.3774706e-09
9.4548236e-10
1.3983467e-09
-9.9759536e-10
-1.5287533e-09
1.0272755e-09
1.5506276e-09
-1.0140914e-09
-1.6125003e-09
1.0435704e-09
1.6347519e-09
-1.0165947e-09
-1.6856848e-09
1.0449065e-09
1.7076222e-09
-7.1538794e-10
-2.0421474e-09
7.415421e-10
2.0630386e-09
-9.1765748e-10
-1.9909916e-09
9.4071732e-10
2.0101152e-09
-1.4143648e-09
-1.0743736e-09
1.4335557e-09
1.0910958e-09
-1.08716e-09
-1.614793e-09
1.101997e-09
1.6286646e-09
-1.0127284e-09
-1.4960444e-09
1.0231666e-09
1.5069059e-09
-1.134036e-09
-1.920707e-09
1.1406306e-09
1.9288077e-09
-1.3726591e-09
-1.8499867e-09
1.3766959e-09
1.8560831e-09
-5.2479145e-10
-1.31631e-09
5.2832236e-10
1.3216537e-09
-7.0749939e-10
-1.4027324e-09
7.1312322e-10
1.4088753e-09
-7.1217079e-10
-2.0026509e-09
7.223723e-10
2.010992e-09
-4.5506426e-10
-1.8038888e-09
4.7193323e-10
1.814856e-09
-9.6525919e-10
-1.5510239e-09
9.9045803e-10
1.5630818e-09
-9.7520979e-10
-1.5781547e-09
1.0118177e-09
1.5847572e-09
-1.0674618e-10
-1.4430629e-09
8.7634063e-11
1.447444e-09
-9.8459268e-11
-2.1036331e-09
-7.7013843e-12
2.1168221e-09
-1.6245525e-10
-5.2895817e-10
-7.114736e-11
1.7683923e-10
-3.0939835e-10
-3.911211e-10
2.5202366e-10
2.2798418e-10
-1.9663615e-10
4.5254939e-11
1.3038806e-10
-1.0076236e-10
-6.2618886e-11
1.1326199e-10
-6.0336258e-11
-1.4972382e-10
9.5579611e-11
2.114386e-10
-2.4207768e-10
-2.2296703e-10
1.1228002e-10
1.6404078e-10
-2.4033062e-10
-1.6260011e-10
1.4746584e-10
1.5384972e-10
-2.3623885e-10
-1.3546401e-10
1.6602084e-10
1.5229118e-10
-2.1149159e-10
-1.1747983e-10
1.5830052e-10
1.4438181e-10
-1.6680119e-10
-9.5968214e-11
1.3759169e-10
1.3053023e-10
-1.189498e-10
-7.2508152e-11
1.1343603e-10
1.1472199e-10
-7.7775674e-11
-5.1880273e-11
8.9678602e-11
9.5291958e-11
-4.5311067e-11
-3.1932904e-11
7.0647647e-11
7.6772771e-11
-2.3388724e-11
-1.5904297e-11
5.1861787e-11
6.113523e-11
-5.3157416e-12
-4.5321799e-12
3.7202142e-11
4.3407373e-11
6.6729179e-12
8.1425806e-12
2.2975345e-11
2.7037878e-11
1.7347192e-11
1.9191801e-11
7.7047298e-12
1.1429061e-11
2.8827874e-11
2.9417409e-11
-6.7688675e-12
-6.2638613e-12
3.9408908e-11
4.1930828e-11
-2.251343e-11
-2.4335554e-11
5.1026454e-11
5.495124e-11
-4.1245637e-11
-4.3373316e-11
6.546714e-11
6.8874484e-11
-6.1175104e-11
-6.3535012e-11
8.1046415e-11
8.3939649e-11
-8.3431952e-11
-8.71199e-11
9.9013491e-11
1.0258491e-10
-1.080843e-10
-1.1346231e-10
1.1962428e-10
1.2430526e-10
-1.352725e-10
-1.4109792e-10
1.4316347e-10
1.4780379e-10
-1.6659123e-10
-1.7683219e-10
1.7136011e-10
1.8004715e-10
-2.0098016e-10
-2.0714281e-10
2.0326638e-10
2.07647e-10
-2.3173121e-10
-2.4499242e-10
2.3224883e-10
2.4366329e-10
-2.712503e-10
-2.9447738e-10
2.7074419e-10
2.9224905e-10
-3.1927716e-10
-3.3541072e-10
3.1848324e-10
3.3322728e-10
-3.633834e-10
-4.0109931e-10
3.6298936e-10
3.9987633e-10
-4.1289064e-10
-4.5643049e-10
4.1350501e-10
4.5701732e-10
-4.663847e-10
-5.2012588e-10
4.6851348e-10
5.2327355e-10
-5.2379266e-10
-5.9847287e-10
5.2782651e-10
6.0481127e-10
-5.9863565e-10
-7.5233946e-10
6.0484414e-10
7.6235798e-10
-6.9712955e-10
-8.2039764e-10
7.056594e-10
8.3442886e-10
-6.8638828e-10
-8.7485233e-10
6.9726728e-10
8.9306016e-10
-7.9504726e-10
-9.0070415e-10
8.0818916e-10
9.2307504e-10
-8.1552191e-10
-9.9675208e-10
8.3073255e-10
1.0230866e-09
-9.9246331e-10
-1.1552142e-09
1.0094495e-09
1.185121e-09
-9.1348781e-10
-1.2634885e-09
9.3186462e-10
1.2963838e-09
-9.5119567e-10
-1.3280078e-09
9.7049507e-10
1.3631183e-09
-1.0413864e-09
-1.4762661e-09
1.0610685e-09
1.5126372e-09
-1.1246392e-09
-1.625896e-09
1.1441074e-09
1.6624133e-09
-1.1430685e-09
-1.597281e-09
1.1616917e-09
1.6327067e-09
-1.1471104e-09
-1.6694174e-09
1.1642595e-09
1.7024442e-09
-7.3588118e-10
-2.0253087e-09
7.5097953e-10
2.0546381e-09
-9.3824981e-10
-1.9741799e-09
9.5084565e-10
1.998626e-09
-1.4339882e-09
-2.1678623e-09
1.4438535e-09
2.1864895e-09
-1.1045212e-09
-1.6002747e-09
1.1117623e-09
1.6125558e-09
-1.0263535e-09
-1.4839672e-09
1.031533e-09
1.4899391e-09
-1.142367e-09
-1.9119933e-09
1.146616e-09
1.9124173e-09
-2.646507e-10
-1.8455395e-09
2.6972103e-10
1.842017e-09
-1.6279342e-09
-2.4265001e-09
1.6361106e-09
2.421424e-09
-6.9251191e-10
-1.4090705e-09
7.0622018e-10
1.4053351e-09
-6.8892538e-10
-2.0150506e-09
7.098771e-10
2.0154283e-09
-1.534531e-09
-1.8216125e-09
1.5626204e-09
1.827693e-09
-9.309359e-10
-1.569309e-09
9.6299173e-10
1.5800961e-09
1.7115578e-10
-2.6916649e-09
-1.4529665e-10
2.6997582e-09
-7.7169703e-11
-3.3359613e-10
7.8441307e-11
3.3681285e-10
-7.8741605e-11
-2.113364e-09
6.9423616e-11
2.118923e-09
)
;

boundaryField
{
    movingWall
    {
        type            calculated;
        value           nonuniform List<scalar> 
16
(
2.9951713e-10
3.1778851e-10
2.9951715e-10
3.177885e-10
-1.4615735e-09
-1.4721485e-09
-1.4615735e-09
-1.4721485e-09
-4.3009815e-10
-3.2002465e-10
-4.3009802e-10
-3.2002468e-10
1.48048e-09
1.4805461e-09
1.48048e-09
1.4805459e-09
)
;
    }
    CPLReceiveMD
    {
        type            calculated;
        value           nonuniform List<scalar> 
16
(
-5.0549807e-09
1.4414485e-10
5.1133711e-10
1.936394e-10
-1.2450184e-10
-3.0348186e-10
5.9388599e-11
-2.6939634e-10
-6.8205085e-10
-5.6412057e-10
-9.756298e-10
-5.8498574e-10
-8.8671497e-10
-2.0960405e-10
-7.0118288e-10
-1.497203e-10
)
;
    }
    streamwiseIn
    {
        type            cyclic;
    }
    streamwiseOut
    {
        type            cyclic;
    }
    front
    {
        type            cyclic;
    }
    back
    {
        type            cyclic;
    }
}


// ************************************************************************* //
