/*--------------------------------*- C++ -*----------------------------------*\
| =========                 |                                                 |
| \\      /  F ield         | OpenFOAM: The Open Source CFD Toolbox           |
|  \\    /   O peration     | Version:  3.0.x                                 |
|   \\  /    A nd           | Web:      www.OpenFOAM.org                      |
|    \\/     M anipulation  |                                                 |
\*---------------------------------------------------------------------------*/
FoamFile
{
    version     2.0;
    format      ascii;
    class       volScalarField;
    location    "100";
    object      sigmaxy;
}
// * * * * * * * * * * * * * * * * * * * * * * * * * * * * * * * * * * * * * //

dimensions      [0 2 -2 0 0 0 0];

internalField   nonuniform List<scalar> 
960
(
-0.013777706
-0.013777695
-0.013777697
-0.013777705
-0.00072868746
-0.00072870221
-0.00072870214
-0.00072868547
0.0033850951
0.0033850674
0.003385069
0.0033850963
0.0038870266
0.0038870006
0.0038870021
0.0038870261
0.0031678946
0.0031678819
0.0031678836
0.0031678927
0.0021721922
0.0021721948
0.0021721961
0.0021721905
0.0012974175
0.0012974265
0.0012974273
0.001297417
0.00066520757
0.00066521495
0.00066521532
0.00066520806
0.00026675055
0.00026675234
0.00026675241
0.00026675152
4.5806589e-05
4.5802341e-05
4.58022e-05
4.5807571e-05
-5.872851e-05
-5.8737312e-05
-5.8737582e-05
-5.8727776e-05
-9.5588367e-05
-9.5599703e-05
-9.5600025e-05
-9.5587936e-05
-9.76529e-05
-9.7665038e-05
-9.7665368e-05
-9.7652748e-05
-8.4369079e-05
-8.4380883e-05
-8.4381188e-05
-8.4369127e-05
-6.571134e-05
-6.5722258e-05
-6.5722533e-05
-6.5711502e-05
-4.5750604e-05
-4.5760513e-05
-4.5760776e-05
-4.5750827e-05
-2.5245908e-05
-2.5254985e-05
-2.5255232e-05
-2.5246174e-05
-3.2788073e-06
-3.2873637e-06
-3.2876043e-06
-3.2791139e-06
2.184426e-05
2.1835888e-05
2.1835616e-05
2.1843916e-05
5.2176137e-05
5.2167606e-05
5.2167284e-05
5.2175736e-05
9.000258e-05
8.9993582e-05
8.9993196e-05
9.0002094e-05
0.00013786982
0.00013786009
0.00013785961
0.00013786922
0.00019868226
0.00019867159
0.00019867097
0.00019868151
0.00027582361
0.00027581176
0.00027581099
0.00027582268
0.00037327711
0.00037326396
0.00037326296
0.00037327589
0.00049573358
0.00049571915
0.00049571785
0.00049573215
0.0006486814
0.00064866551
0.00064866387
0.00064867964
0.0008384732
0.00083845574
0.00083845365
0.00083847097
0.0010723668
0.0010723478
0.0010723453
0.0010723641
0.0013585339
0.0013585135
0.0013585104
0.0013585307
0.0017060295
0.0017060079
0.001706004
0.0017060258
0.0021247164
0.0021246935
0.0021246889
0.0021247119
0.0026251351
0.0026251116
0.0026251058
0.00262513
0.0032183152
0.0032182913
0.0032182849
0.00321831
0.0039155204
0.0039154952
0.0039154879
0.0039155144
0.0047279225
0.0047278971
0.0047278887
0.0047279148
0.00566621
0.0056661866
0.0056661765
0.0056662025
0.006740133
0.0067401108
0.0067400994
0.0067401256
0.0079579886
0.0079579675
0.0079579555
0.0079579813
0.0093260673
0.0093260478
0.0093260346
0.00932606
0.010848078
0.010848061
0.010848046
0.010848071
0.012524575
0.012524561
0.012524546
0.012524569
0.014352418
0.014352408
0.014352392
0.014352414
0.016324291
0.016324284
0.016324268
0.016324288
0.018428319
0.018428313
0.0184283
0.018428318
0.020647822
0.020647819
0.020647806
0.020647822
0.022961216
0.022961217
0.022961196
0.022961214
0.025342101
0.025342108
0.025342088
0.025342107
0.027759591
0.027759597
0.027759585
0.027759599
0.030178785
0.030178789
0.030178779
0.030178788
0.032561519
0.032561522
0.032561514
0.032561518
0.034867287
0.03486728
0.034867275
0.034867282
0.037054304
0.0370543
0.037054292
0.037054302
0.039080783
0.039080781
0.039080775
0.039080777
0.040906222
0.040906206
0.040906209
0.040906205
0.042492728
0.042492711
0.042492708
0.042492706
0.043806346
0.043806333
0.04380633
0.043806324
0.044818278
0.044818267
0.044818277
0.044818261
0.045505921
0.045505912
0.045505941
0.045505903
0.045853693
0.045853714
0.045853748
0.04585368
-0.013777702
-0.013777693
-0.013777694
-0.013777698
-0.00072868508
-0.00072870066
-0.00072870115
-0.00072868386
0.0033850946
0.0033850673
0.0033850682
0.0033850936
0.0038870242
0.0038869991
0.0038869999
0.0038870228
0.0031678909
0.0031678798
0.0031678808
0.0031678883
0.0021721893
0.0021721931
0.0021721939
0.0021721871
0.0012974163
0.0012974261
0.0012974265
0.0012974155
0.00066520764
0.00066521549
0.00066521565
0.00066520805
0.00026675134
0.00026675336
0.0002667533
0.00026675228
4.580757e-05
4.5803421e-05
4.5803201e-05
4.5808545e-05
-5.8727638e-05
-5.8736401e-05
-5.8736723e-05
-5.8726911e-05
-9.5587716e-05
-9.5599041e-05
-9.5599388e-05
-9.5587303e-05
-9.7652483e-05
-9.7664606e-05
-9.7664953e-05
-9.7652347e-05
-8.4368845e-05
-8.4380639e-05
-8.4380966e-05
-8.4368915e-05
-6.5711232e-05
-6.5722133e-05
-6.5722436e-05
-6.5711416e-05
-4.5750578e-05
-4.5760471e-05
-4.5760749e-05
-4.5750823e-05
-2.5245933e-05
-2.5254998e-05
-2.525526e-05
-2.5246215e-05
-3.2788568e-06
-3.2873974e-06
-3.2876605e-06
-3.2791728e-06
2.1844199e-05
2.1835841e-05
2.1835553e-05
2.1843837e-05
5.2176063e-05
5.2167545e-05
5.2167206e-05
5.2175638e-05
9.0002493e-05
8.9993509e-05
8.9993105e-05
9.0001983e-05
0.00013786971
0.00013786001
0.0001378595
0.0001378691
0.00019868214
0.00019867149
0.00019867084
0.00019868137
0.00027582344
0.00027581169
0.00027581086
0.0002758225
0.00037327694
0.00037326387
0.00037326283
0.00037327572
0.00049573345
0.00049571896
0.00049571764
0.00049573194
0.00064868115
0.00064866525
0.0006486636
0.00064867936
0.00083847288
0.00083845549
0.00083845337
0.00083847063
0.0010723665
0.0010723477
0.001072345
0.0010723638
0.0013585336
0.0013585133
0.0013585101
0.0013585304
0.0017060292
0.0017060075
0.0017060037
0.0017060254
0.0021247159
0.0021246932
0.0021246885
0.0021247116
0.0026251346
0.0026251109
0.0026251058
0.0026251295
0.003218315
0.0032182907
0.0032182844
0.003218309
0.0039155198
0.0039154952
0.0039154872
0.0039155137
0.0047279219
0.0047278971
0.004727888
0.0047279148
0.00566621
0.0056661859
0.0056661758
0.0056662025
0.0067401331
0.0067401108
0.0067400994
0.0067401256
0.0079579887
0.0079579675
0.0079579555
0.0079579813
0.0093260667
0.0093260472
0.0093260339
0.00932606
0.010848077
0.010848061
0.010848046
0.01084807
0.012524575
0.012524562
0.012524547
0.012524569
0.014352419
0.014352408
0.014352392
0.014352414
0.016324292
0.016324284
0.016324268
0.016324288
0.018428321
0.018428315
0.018428303
0.018428321
0.020647825
0.020647821
0.020647809
0.020647824
0.022961209
0.022961217
0.022961196
0.022961214
0.025342101
0.025342108
0.025342088
0.025342107
0.027759598
0.027759597
0.027759585
0.027759599
0.030178785
0.030178789
0.030178779
0.030178788
0.032561519
0.032561522
0.032561514
0.032561525
0.034867287
0.034867286
0.034867282
0.034867282
0.037054304
0.0370543
0.037054292
0.037054296
0.039080783
0.039080774
0.039080768
0.039080777
0.040906222
0.040906213
0.040906209
0.040906205
0.042492728
0.042492711
0.042492708
0.042492706
0.043806346
0.043806326
0.043806337
0.04380633
0.044818284
0.044818267
0.044818277
0.044818261
0.045505921
0.045505912
0.045505934
0.045505896
0.045853686
0.045853714
0.045853748
0.04585368
-0.013777706
-0.013777695
-0.013777697
-0.013777704
-0.00072868741
-0.00072870164
-0.00072870213
-0.00072868604
0.0033850951
0.0033850682
0.003385069
0.0033850956
0.0038870265
0.0038870012
0.0038870022
0.0038870254
0.0031678946
0.0031678824
0.0031678836
0.0031678922
0.0021721922
0.0021721952
0.0021721961
0.0021721902
0.0012974175
0.0012974268
0.0012974273
0.0012974167
0.00066520757
0.0006652151
0.00066521534
0.0006652079
0.00026675054
0.00026675244
0.00026675242
0.00026675142
4.5806579e-05
4.5802405e-05
4.580221e-05
4.5807507e-05
-5.8728519e-05
-5.8737277e-05
-5.873758e-05
-5.8727812e-05
-9.5588363e-05
-9.559968e-05
-9.5600023e-05
-9.5587959e-05
-9.7652901e-05
-9.7665024e-05
-9.7665361e-05
-9.7652762e-05
-8.4369087e-05
-8.4380879e-05
-8.4381194e-05
-8.4369131e-05
-6.571134e-05
-6.5722249e-05
-6.5722532e-05
-6.5711504e-05
-4.5750605e-05
-4.5760511e-05
-4.5760769e-05
-4.5750836e-05
-2.5245908e-05
-2.5254984e-05
-2.5255231e-05
-2.5246182e-05
-3.2788075e-06
-3.2873564e-06
-3.2876042e-06
-3.2791147e-06
2.184426e-05
2.1835889e-05
2.1835616e-05
2.1843915e-05
5.2176137e-05
5.2167606e-05
5.2167284e-05
5.2175735e-05
9.000258e-05
8.9993583e-05
8.9993196e-05
9.0002094e-05
0.00013786982
0.00013786009
0.00013785961
0.00013786922
0.00019868226
0.00019867159
0.00019867097
0.00019868151
0.00027582361
0.00027581176
0.00027581099
0.00027582268
0.00037327711
0.00037326396
0.00037326296
0.00037327589
0.00049573358
0.00049571915
0.00049571785
0.00049573215
0.0006486814
0.00064866551
0.00064866387
0.00064867964
0.0008384732
0.00083845574
0.00083845365
0.00083847097
0.0010723668
0.0010723478
0.0010723453
0.0010723641
0.0013585339
0.0013585135
0.0013585104
0.0013585307
0.0017060295
0.0017060079
0.001706004
0.0017060258
0.0021247164
0.0021246935
0.0021246889
0.0021247119
0.0026251351
0.0026251116
0.0026251058
0.00262513
0.0032183152
0.0032182913
0.0032182849
0.00321831
0.0039155204
0.0039154952
0.0039154879
0.0039155144
0.0047279225
0.0047278971
0.0047278887
0.0047279148
0.00566621
0.0056661866
0.0056661765
0.0056662025
0.006740133
0.0067401108
0.0067400994
0.0067401256
0.0079579886
0.0079579675
0.0079579555
0.0079579813
0.0093260673
0.0093260478
0.0093260346
0.00932606
0.010848078
0.010848061
0.010848046
0.010848071
0.012524575
0.012524561
0.012524546
0.012524569
0.014352418
0.014352408
0.014352392
0.014352414
0.016324291
0.016324284
0.016324268
0.016324288
0.018428319
0.018428313
0.0184283
0.018428318
0.020647822
0.020647819
0.020647806
0.020647822
0.022961216
0.022961217
0.022961196
0.022961214
0.025342101
0.025342108
0.025342088
0.025342107
0.027759591
0.027759597
0.027759585
0.027759599
0.030178785
0.030178789
0.030178779
0.030178788
0.032561519
0.032561522
0.032561514
0.032561518
0.034867287
0.03486728
0.034867275
0.034867282
0.037054304
0.0370543
0.037054292
0.037054302
0.039080783
0.039080781
0.039080775
0.039080777
0.040906222
0.040906206
0.040906209
0.040906205
0.042492728
0.042492711
0.042492708
0.042492706
0.043806346
0.043806333
0.04380633
0.043806324
0.044818278
0.044818267
0.044818277
0.044818261
0.045505921
0.045505912
0.045505941
0.045505903
0.045853693
0.045853714
0.045853748
0.04585368
-0.013777702
-0.013777693
-0.013777694
-0.013777698
-0.00072868508
-0.00072870057
-0.00072870115
-0.00072868388
0.0033850946
0.0033850673
0.0033850682
0.0033850937
0.0038870242
0.0038869991
0.0038869998
0.0038870227
0.003167891
0.0031678798
0.0031678809
0.0031678882
0.0021721893
0.0021721932
0.0021721939
0.0021721871
0.0012974162
0.0012974261
0.0012974265
0.0012974155
0.00066520762
0.0006652155
0.00066521567
0.00066520805
0.00026675133
0.00026675337
0.00026675331
0.00026675228
4.5807566e-05
4.5803424e-05
4.5803205e-05
4.5808536e-05
-5.8727648e-05
-5.8736399e-05
-5.8736714e-05
-5.8726919e-05
-9.5587725e-05
-9.5599033e-05
-9.5599379e-05
-9.5587305e-05
-9.7652478e-05
-9.7664606e-05
-9.7664958e-05
-9.7652348e-05
-8.4368847e-05
-8.4380639e-05
-8.4380965e-05
-8.4368915e-05
-6.5711239e-05
-6.5722139e-05
-6.5722428e-05
-6.5711416e-05
-4.5750579e-05
-4.576047e-05
-4.5760755e-05
-4.5750824e-05
-2.5245933e-05
-2.5254991e-05
-2.525526e-05
-2.5246215e-05
-3.2788571e-06
-3.2873973e-06
-3.2876536e-06
-3.2791729e-06
2.1844198e-05
2.1835841e-05
2.1835553e-05
2.1843837e-05
5.2176063e-05
5.2167545e-05
5.2167206e-05
5.2175638e-05
9.0002493e-05
8.9993509e-05
8.9993105e-05
9.0001983e-05
0.00013786971
0.00013786001
0.0001378595
0.0001378691
0.00019868214
0.00019867149
0.00019867084
0.00019868137
0.00027582344
0.00027581169
0.00027581086
0.0002758225
0.00037327694
0.00037326387
0.00037326283
0.00037327572
0.00049573345
0.00049571896
0.00049571764
0.00049573194
0.00064868115
0.00064866525
0.0006486636
0.00064867936
0.00083847288
0.00083845549
0.00083845337
0.00083847063
0.0010723665
0.0010723477
0.001072345
0.0010723638
0.0013585336
0.0013585133
0.0013585101
0.0013585304
0.0017060292
0.0017060075
0.0017060037
0.0017060254
0.0021247159
0.0021246932
0.0021246885
0.0021247116
0.0026251346
0.0026251109
0.0026251058
0.0026251295
0.003218315
0.0032182907
0.0032182844
0.003218309
0.0039155198
0.0039154952
0.0039154872
0.0039155137
0.0047279219
0.0047278971
0.004727888
0.0047279148
0.00566621
0.0056661859
0.0056661758
0.0056662025
0.0067401331
0.0067401108
0.0067400994
0.0067401256
0.0079579887
0.0079579675
0.0079579555
0.0079579813
0.0093260667
0.0093260472
0.0093260339
0.00932606
0.010848077
0.010848061
0.010848046
0.01084807
0.012524575
0.012524562
0.012524547
0.012524569
0.014352419
0.014352408
0.014352392
0.014352414
0.016324292
0.016324284
0.016324268
0.016324288
0.018428321
0.018428315
0.018428303
0.018428321
0.020647825
0.020647821
0.020647809
0.020647824
0.022961209
0.022961217
0.022961196
0.022961214
0.025342101
0.025342108
0.025342088
0.025342107
0.027759598
0.027759597
0.027759585
0.027759599
0.030178785
0.030178789
0.030178779
0.030178788
0.032561519
0.032561522
0.032561514
0.032561525
0.034867287
0.034867286
0.034867282
0.034867282
0.037054304
0.0370543
0.037054292
0.037054296
0.039080783
0.039080774
0.039080768
0.039080777
0.040906222
0.040906213
0.040906209
0.040906205
0.042492728
0.042492711
0.042492708
0.042492706
0.043806346
0.043806326
0.043806337
0.04380633
0.044818284
0.044818267
0.044818277
0.044818261
0.045505921
0.045505912
0.045505934
0.045505896
0.045853686
0.045853714
0.045853748
0.04585368
)
;

boundaryField
{
    movingWall
    {
        type            calculated;
        value           nonuniform List<scalar> 
16
(
0.045941123
0.045941123
0.045941123
0.045941123
0.045941177
0.045941177
0.045941177
0.045941177
0.045941204
0.045941204
0.045941204
0.045941204
0.045941123
0.045941123
0.045941123
0.045941123
)
;
    }
    CPLReceiveMD
    {
        type            calculated;
        value           nonuniform List<scalar> 
16
(
-0.023432639
-0.023432634
-0.023432639
-0.023432634
-0.023432612
-0.02343261
-0.023432613
-0.02343261
-0.023432615
-0.023432611
-0.023432615
-0.023432611
-0.023432638
-0.023432632
-0.023432637
-0.023432632
)
;
    }
    streamwiseIn
    {
        type            cyclic;
    }
    streamwiseOut
    {
        type            cyclic;
    }
    front
    {
        type            cyclic;
    }
    back
    {
        type            cyclic;
    }
}


// ************************************************************************* //
