/*--------------------------------*- C++ -*----------------------------------*\
| =========                 |                                                 |
| \\      /  F ield         | OpenFOAM: The Open Source CFD Toolbox           |
|  \\    /   O peration     | Version:  3.0.x                                 |
|   \\  /    A nd           | Web:      www.OpenFOAM.org                      |
|    \\/     M anipulation  |                                                 |
\*---------------------------------------------------------------------------*/
FoamFile
{
    version     2.0;
    format      ascii;
    class       volVectorField;
    location    "100";
    object      U;
}
// * * * * * * * * * * * * * * * * * * * * * * * * * * * * * * * * * * * * * //

dimensions      [0 1 -1 0 0 0 0];

internalField   nonuniform List<vector> 
960
(
(-0.0083365923 2.4221298e-09 -5.2303404e-11)
(-0.0083365823 -4.9989639e-10 5.4718511e-11)
(-0.0083365835 1.0440663e-09 2.4239145e-11)
(-0.0083365923 1.0271222e-09 9.3660826e-11)
(-0.01145757 3.3447808e-09 -5.6838486e-11)
(-0.011457563 -1.0657457e-09 6.6148569e-11)
(-0.011457566 1.871755e-09 2.0714155e-11)
(-0.011457569 1.8689184e-09 1.1396487e-10)
(-0.009439838 3.6162808e-09 -4.7557836e-11)
(-0.0094398507 -4.2028095e-10 6.1912129e-11)
(-0.0094398529 7.5788863e-10 1.7134532e-11)
(-0.0094398361 1.2402146e-09 1.1042273e-10)
(-0.0063324723 6.40794e-09 -3.5375862e-11)
(-0.0063325069 3.3123155e-09 5.284212e-11)
(-0.0063325087 -3.2258893e-09 1.3931199e-11)
(-0.0063324706 -2.3171555e-09 9.8209512e-11)
(-0.0035548085 1.2151199e-08 -2.4676985e-11)
(-0.0035548567 9.4643498e-09 4.4334543e-11)
(-0.0035548576 -9.3645833e-09 1.1074024e-11)
(-0.0035548084 -8.2946514e-09 8.2707855e-11)
(-0.0015362251 1.8047588e-08 -1.6562672e-11)
(-0.001536269 1.5946465e-08 3.6008647e-11)
(-0.0015362692 -1.5523333e-08 8.6320051e-12)
(-0.0015362272 -1.4646641e-08 6.6856241e-11)
(-0.00026607655 2.2019692e-08 -1.0902404e-11)
(-0.00026610465 2.0679404e-08 2.8215924e-11)
(-0.00026610443 -1.9733747e-08 6.4447844e-12)
(-0.00026607986 -1.9298216e-08 5.2258816e-11)
(0.00042807921 2.3459926e-08 -7.1543935e-12)
(0.00042806956 2.2856919e-08 2.1475887e-11)
(0.00042807005 -2.1402283e-08 4.6201468e-12)
(0.00042807584 -2.1442892e-08 3.9701118e-11)
(0.00074104899 2.2723967e-08 -4.7503839e-12)
(0.00074105453 2.2698559e-08 1.5840208e-11)
(0.00074105516 -2.0889874e-08 3.1776022e-12)
(0.00074104627 -2.1297359e-08 2.9426156e-11)
(0.00083193345 2.0569367e-08 -3.2245523e-12)
(0.00083194858 2.0919454e-08 1.1258658e-11)
(0.00083194927 -1.8953432e-08 2.0838776e-12)
(0.00083193164 -1.9569126e-08 2.1337396e-11)
(0.00081039082 1.7767899e-08 -2.2499508e-12)
(0.00081041009 1.8311745e-08 7.7209987e-12)
(0.00081041075 -1.6358177e-08 1.2932151e-12)
(0.00081038983 -1.7039674e-08 1.5167646e-11)
(0.00074300848 1.4914539e-08 -1.6024026e-12)
(0.00074302779 1.5519252e-08 5.1624164e-12)
(0.00074302838 -1.3692208e-08 7.5107581e-13)
(0.00074300809 -1.4341835e-08 1.0589751e-11)
(0.00066566072 1.2381227e-08 -1.1584421e-12)
(0.00066567756 1.2966453e-08 3.3910913e-12)
(0.00066567805 -1.1323253e-08 3.9772087e-13)
(0.0006656607 -1.1890775e-08 7.2744694e-12)
(0.0005951539 1.0349298e-08 -8.3911801e-13)
(0.00059516707 1.0877982e-08 2.2075075e-12)
(0.00059516745 -9.4315685e-09 1.8250352e-13)
(0.00059515403 -9.904182e-09 4.9242024e-12)
(0.00053791912 8.8689847e-09 -6.0204755e-13)
(0.00053792831 9.3343014e-09 1.451231e-12)
(0.00053792859 -8.0686593e-09 5.9147957e-14)
(0.00053791928 -8.4578601e-09 3.2916167e-12)
(0.00049566122 7.9162099e-09 -4.2372218e-13)
(0.00049566661 8.3299557e-09 9.3026208e-13)
(0.00049566679 -7.2129874e-09 -6.6498294e-15)
(0.00049566132 -7.5434519e-09 2.1779647e-12)
(0.00046864785 7.4349136e-09 -2.876077e-13)
(0.00046864985 7.8192911e-09 5.8367547e-13)
(0.00046864992 -6.8113472e-09 -3.8238237e-14)
(0.00046864786 -7.1142052e-09 1.4124621e-12)
(0.00045743468 7.3635374e-09 -1.9508663e-13)
(0.00045743368 7.7463073e-09 3.6015812e-13)
(0.00045743366 -6.8046992e-09 -5.0516753e-14)
(0.00045743455 -7.1134248e-09 9.0160886e-13)
(0.00046367993 7.6481278e-09 -1.2552385e-13)
(0.00046367629 8.0610248e-09 2.195171e-13)
(0.00046367617 -7.1414865e-09 -5.1792121e-14)
(0.00046367965 -7.4904288e-09 5.6969956e-13)
(0.00049050338 8.2474102e-09 -7.5607772e-14)
(0.00049049735 8.7263806e-09 1.3368242e-13)
(0.00049049711 -7.7824211e-09 -4.6013789e-14)
(0.00049050292 -8.2083149e-09 3.569917e-13)
(0.00054267131 9.1329923e-09 -4.1676646e-14)
(0.00054266306 9.7192906e-09 8.2275946e-14)
(0.00054266268 -8.700523e-09 -3.5705359e-14)
(0.00054267065 -9.2444067e-09 2.2260657e-13)
(0.00062676419 1.0286244e-08 -1.9607949e-14)
(0.00062675381 1.1028658e-08 5.2172605e-14)
(0.00062675327 -9.8783782e-09 -2.6018257e-14)
(0.00062676328 -1.0588144e-08 1.387742e-13)
(0.00075140335 1.1694512e-08 -6.0489867e-15)
(0.0007513909 1.2652125e-08 3.4746802e-14)
(0.00075139015 -1.1304278e-08 -1.8436071e-14)
(0.00075140214 -1.2237832e-08 8.6922679e-14)
(0.00092756658 1.3347251e-08 1.6215635e-15)
(0.00092755211 1.459252e-08 2.4589147e-14)
(0.0009275511 -1.2968587e-08 -1.29152e-14)
(0.00092756501 -1.4197107e-08 5.5006738e-14)
(0.0011689982 1.5232392e-08 5.3855918e-15)
(0.0011689817 1.6854478e-08 1.8472603e-14)
(0.0011689804 -1.4860186e-08 -9.108837e-15)
(0.0011689962 -1.647154e-08 3.5357496e-14)
(0.0014927067 1.7333101e-08 6.688418e-15)
(0.0014926883 1.9441352e-08 1.4540951e-14)
(0.0014926866 -1.6963241e-08 -6.608026e-15)
(0.0014927041 -1.9065523e-08 2.3177227e-14)
(0.0019195384 1.9624918e-08 6.5513535e-15)
(0.0019195184 2.2352407e-08 1.178304e-14)
(0.0019195162 -1.9254344e-08 -5.0323506e-15)
(0.0019195353 -2.1979435e-08 1.5515988e-14)
(0.0024748113 2.2073301e-08 5.6637892e-15)
(0.0024747898 2.5580232e-08 9.6490248e-15)
(0.002474787 -2.170003e-08 -4.0701831e-15)
(0.0024748074 -2.5206998e-08 1.0587928e-14)
(0.0031889897 2.4631581e-08 4.4733793e-15)
(0.0031889671 2.9108296e-08 7.8953004e-15)
(0.0031889635 -2.4254701e-08 -3.4907968e-15)
(0.003188985 -2.8732796e-08 7.3264781e-15)
(0.0040983801 2.7239426e-08 3.2493644e-15)
(0.0040983568 3.2908628e-08 6.3930429e-15)
(0.0040983524 -2.6859049e-08 -3.1308054e-15)
(0.0040983744 -3.2529914e-08 5.1007245e-15)
(0.0052458189 2.9821929e-08 2.1405745e-15)
(0.0052457956 3.6939622e-08 5.0960621e-15)
(0.0052457902 -2.943911e-08 -2.8831902e-15)
(0.0052458123 -3.6557708e-08 3.538279e-15)
(0.0066813222 3.2289507e-08 1.2172577e-15)
(0.0066812996 4.1144028e-08 3.9879093e-15)
(0.0066812929 -3.1906137e-08 -2.6829583e-15)
(0.0066813144 -4.0759769e-08 2.4178544e-15)
(0.0084626586 3.4538812e-08 4.9814815e-16)
(0.0084626375 4.5447218e-08 3.0564112e-15)
(0.0084626295 -3.4157492e-08 -2.4929202e-15)
(0.0084626497 -4.5062182e-08 1.6058499e-15)
(0.010655803 3.6454871e-08 -2.7447779e-17)
(0.010655785 4.9755866e-08 2.2903332e-15)
(0.010655775 -3.6078765e-08 -2.2852981e-15)
(0.010655793 -4.9372191e-08 1.0157141e-15)
(0.013335223 3.7914618e-08 -3.8536929e-16)
(0.013335209 5.3957224e-08 1.6740406e-15)
(0.013335198 -3.7547305e-08 -2.068999e-15)
(0.013335213 -5.3577473e-08 5.9136921e-16)
(0.016583947 3.8791968e-08 -6.0693252e-16)
(0.016583937 5.7919178e-08 1.1892506e-15)
(0.016583924 -3.8437285e-08 -1.8503534e-15)
(0.016583936 -5.7546207e-08 2.9101409e-16)
(0.020493357 3.8964438e-08 -7.2370295e-16)
(0.020493353 6.1491364e-08 8.1689595e-16)
(0.020493339 -3.862632e-08 -1.6335988e-15)
(0.020493345 -6.1128186e-08 8.495549e-17)
(0.025162664 3.8321205e-08 -7.6402314e-16)
(0.025162669 6.4507581e-08 5.3797435e-16)
(0.025162652 -3.8003536e-08 -1.4237171e-15)
(0.025162653 -6.4157241e-08 -5.0577498e-17)
(0.030698012 3.6772337e-08 -7.516758e-16)
(0.030698026 6.6789807e-08 3.3478242e-16)
(0.030698008 -3.6478786e-08 -1.2254155e-15)
(0.030698002 -6.6455264e-08 -1.3459226e-16)
(0.037211174 3.4258693e-08 -7.0508089e-16)
(0.037211199 6.8154091e-08 1.9074239e-16)
(0.037211179 -3.3992562e-08 -1.042647e-15)
(0.037211167 -6.7838099e-08 -1.8179033e-16)
(0.044817818 3.0761819e-08 -6.3954706e-16)
(0.044817854 6.8418571e-08 9.2895082e-17)
(0.044817833 -3.0525883e-08 -8.7760275e-16)
(0.044817814 -6.8123567e-08 -2.0400216e-16)
(0.053635332 2.6312931e-08 -5.6537764e-16)
(0.053635381 6.7413778e-08 2.8613047e-17)
(0.053635358 -2.6109286e-08 -7.3183765e-16)
(0.053635334 -6.7141764e-08 -2.0731558e-16)
(0.063780225 2.0999939e-08 -4.8728099e-16)
(0.063780287 6.4995242e-08 -1.2075653e-17)
(0.063780264 -2.0829851e-08 -6.0743837e-16)
(0.063780233 -6.4747676e-08 -1.9752517e-16)
(0.075365129 1.4971344e-08 -4.1154206e-16)
(0.075365205 6.1058226e-08 -3.7491019e-17)
(0.075365181 -1.4835118e-08 -5.0041478e-16)
(0.075365146 -6.0835908e-08 -1.7966564e-16)
(0.088495476 8.4358952e-09 -3.4207433e-16)
(0.088495565 5.555409e-08 -5.1842456e-17)
(0.088495541 -8.3327665e-09 -4.0952554e-16)
(0.088495503 -5.5357072e-08 -1.5777561e-16)
(0.10326592 1.6570342e-09 -2.7850873e-16)
(0.10326602 4.8507484e-08 -5.9227805e-17)
(0.103266 -1.5851125e-09 -3.353056e-16)
(0.10326596 -4.8334997e-08 -1.346664e-16)
(0.11975664 -5.0584941e-09 -2.2347694e-16)
(0.11975675 4.0033123e-08 -6.1260198e-17)
(0.11975673 5.1022202e-09 -2.7285247e-16)
(0.11975669 -3.9883557e-08 -1.1218938e-16)
(0.13802961 -1.1377994e-08 -1.7994116e-16)
(0.13802973 3.0350501e-08 -5.7923559e-17)
(0.1380297 1.1397542e-08 -2.1901103e-16)
(0.13802967 -3.022145e-08 -9.2846205e-17)
(0.15812504 -1.6965486e-08 -1.4518865e-16)
(0.15812517 1.9794476e-08 -5.0668035e-17)
(0.15812514 1.6965626e-08 -1.7159223e-16)
(0.15812512 -1.9682889e-08 -8.0719936e-17)
(0.18005814 -2.1508235e-08 -1.1777802e-16)
(0.18005827 8.8193188e-09 -4.2836337e-17)
(0.18005824 2.1494086e-08 -1.3252044e-16)
(0.18005823 -8.7217725e-09 -6.9541179e-17)
(0.20381628 -2.474492e-08 -9.3776905e-17)
(0.20381641 -2.0063879e-09 -3.3723367e-17)
(0.20381638 2.4721353e-08 -1.0335638e-16)
(0.20381638 2.0933056e-09 -6.0886334e-17)
(0.22935689 -2.6492335e-08 -7.5471327e-17)
(0.22935701 -1.2017124e-08 -3.1982918e-17)
(0.22935698 2.6463207e-08 -7.8577656e-17)
(0.22935699 1.2096272e-08 -4.7735175e-17)
(0.25660601 -2.6667257e-08 -6.4350037e-17)
(0.25660611 -2.0483596e-08 -3.4603573e-17)
(0.25660608 2.6634522e-08 -5.469141e-17)
(0.25660611 2.0556668e-08 -3.2726623e-17)
(0.28545781 -2.5300518e-08 -5.8654282e-17)
(0.2854579 -2.6666642e-08 -4.2204748e-17)
(0.28545786 2.5263372e-08 -3.0023896e-17)
(0.28545791 2.6733653e-08 -1.9704455e-17)
(0.31577506 -2.2540664e-08 -5.3743639e-17)
(0.31577513 -2.9897162e-08 -3.8701115e-17)
(0.31577509 2.2495158e-08 -1.4583091e-17)
(0.31577515 2.9956282e-08 -1.3725531e-17)
(0.34739061 -1.8643474e-08 -4.588234e-17)
(0.34739065 -2.9678092e-08 -3.4597243e-17)
(0.34739061 1.858316e-08 -1.0684247e-17)
(0.34739068 2.972616e-08 -6.3725705e-18)
(0.38010986 -1.3947675e-08 -4.0156413e-17)
(0.38010988 -2.580048e-08 -3.1354321e-17)
(0.38010983 1.3863857e-08 -3.5216561e-18)
(0.38010991 2.5834693e-08 -5.9541326e-18)
(0.41371425 -8.8918179e-09 -4.0774385e-17)
(0.41371425 -1.8596147e-08 -2.3354408e-17)
(0.4137142 8.7742757e-09 1.099411e-17)
(0.41371428 1.8616831e-08 -1.4662559e-17)
(0.44796558 -4.1734198e-09 -3.4713562e-17)
(0.44796557 -9.6172357e-09 -1.5138024e-17)
(0.44796553 4.0064642e-09 1.3364206e-17)
(0.4479656 9.6364544e-09 -2.3825262e-17)
(0.48261107 -1.0898681e-09 -1.4640027e-17)
(0.48261105 -2.7197002e-09 -1.150249e-17)
(0.48261104 1.0157298e-09 2.3169877e-19)
(0.48261107 2.7304345e-09 -2.4262446e-17)
(-0.0083365906 -5.8522725e-10 7.2262309e-10)
(-0.0083365816 -3.832503e-10 -6.4360863e-11)
(-0.008336582 8.3074316e-10 1.0662026e-10)
(-0.0083365898 6.3716917e-10 -1.2176043e-10)
(-0.011457565 -9.616245e-10 1.4828289e-09)
(-0.011457561 -5.7575555e-10 1.5600829e-10)
(-0.011457563 1.3420768e-09 2.4727241e-10)
(-0.011457561 1.1567442e-09 8.6187976e-11)
(-0.009439833 1.4244645e-10 1.3117578e-09)
(-0.0094398486 5.7706713e-12 2.3537742e-10)
(-0.0094398496 2.7738551e-10 2.7325429e-10)
(-0.0094398302 6.548402e-10 1.7349383e-10)
(-0.0063324683 4.1006263e-09 1.0407717e-09)
(-0.0063325058 3.5351989e-09 2.4318116e-10)
(-0.0063325066 -3.5916563e-09 2.5228834e-10)
(-0.0063324659 -2.7528601e-09 1.9228002e-10)
(-0.0035548073 1.0316987e-08 7.6121991e-10)
(-0.0035548573 9.4839173e-09 2.1656282e-10)
(-0.0035548575 -9.6731233e-09 2.1343375e-10)
(-0.0035548069 -8.6112381e-09 1.7724107e-10)
(-0.0015362268 1.6533107e-08 5.2872455e-10)
(-0.0015362715 1.5785555e-08 1.7914269e-10)
(-0.0015362713 -1.575607e-08 1.7198691e-10)
(-0.0015362288 -1.4837564e-08 1.5006874e-10)
(-0.00026607978 2.0784044e-08 3.5808554e-10)
(-0.00026610816 2.0395459e-08 1.4281502e-10)
(-0.00026610764 -1.9904282e-08 1.3391344e-10)
(-0.00026608311 -1.9393124e-08 1.2193609e-10)
(0.00042807568 2.2471513e-08 2.4066942e-10)
(0.00042806605 2.2513511e-08 1.1197632e-10)
(0.00042806674 -2.1531905e-08 1.0225412e-10)
(0.00042807229 -2.1482224e-08 9.71696e-11)
(0.00074104594 2.1952541e-08 1.6206124e-10)
(0.00074105161 2.2349675e-08 8.7170651e-11)
(0.00074105237 -2.0993966e-08 7.7250915e-11)
(0.00074104323 -2.1315138e-08 7.6778933e-11)
(0.00083193119 1.9984538e-08 1.0994216e-10)
(0.00083194644 2.0602045e-08 6.7661158e-11)
(0.00083194722 -1.9039796e-08 5.8042672e-11)
(0.00083192941 -1.9586412e-08 6.0454909e-11)
(0.00081038933 1.7338031e-08 7.536365e-11)
(0.00081040868 1.804585e-08 5.2489881e-11)
(0.0008104094 -1.642939e-08 4.350573e-11)
(0.00081038839 -1.7065298e-08 4.7507829e-11)
(0.0007430076 1.4608377e-08 5.2240818e-11)
(0.00074302694 1.531154e-08 4.0689456e-11)
(0.00074302757 -1.3748405e-08 3.2580037e-11)
(0.00074300726 -1.4376317e-08 3.7260752e-11)
(0.00066566026 1.217007e-08 3.6589738e-11)
(0.00066567709 1.2814697e-08 3.1493646e-11)
(0.00066567762 -1.1364046e-08 2.4389498e-11)
(0.00066566028 -1.1930152e-08 2.9146918e-11)
(0.00059515368 1.020868e-08 2.5857766e-11)
(0.00059516683 1.0775491e-08 2.4321189e-11)
(0.00059516724 -9.4570382e-09 1.8254088e-11)
(0.00059515385 -9.943096e-09 2.2718179e-11)
(0.00053791903 8.7792604e-09 1.8403589e-11)
(0.00053792818 9.2727978e-09 1.8703606e-11)
(0.00053792848 -8.07964e-09 1.3653438e-11)
(0.00053791921 -8.4915487e-09 1.7637227e-11)
(0.00049566117 7.8623074e-09 1.3167822e-11)
(0.00049566654 8.3013433e-09 1.4293551e-11)
(0.00049566672 -7.2109323e-09 1.0204392e-11)
(0.00049566129 -7.5687233e-09 1.3632802e-11)
(0.0004686478 7.40551e-09 9.4510108e-12)
(0.00046864977 7.8166103e-09 1.0863673e-11)
(0.00046864985 -6.7980947e-09 7.6174216e-12)
(0.00046864781 -7.128618e-09 1.0448683e-11)
(0.00045743459 7.3500241e-09 6.7999211e-12)
(0.00045743358 7.7639199e-09 8.2165091e-12)
(0.00045743355 -6.7822297e-09 5.6803642e-12)
(0.00045743447 -7.1159581e-09 7.9523388e-12)
(0.0004636798 7.6445181e-09 4.8982957e-12)
(0.00046367615 8.0946239e-09 6.1861046e-12)
(0.00046367602 -7.1117235e-09 4.2313722e-12)
(0.00046367952 -7.4821e-09 6.0196874e-12)
(0.00049050319 8.2499024e-09 3.5334482e-12)
(0.00049049717 8.7728079e-09 4.6380223e-12)
(0.00049049691 -7.7472361e-09 3.1457069e-12)
(0.00049050273 -8.1907154e-09 4.5358287e-12)
(0.00054267106 9.1388919e-09 2.5529124e-12)
(0.00054266282 9.7762961e-09 3.4638804e-12)
(0.00054266242 -8.6614198e-09 2.331634e-12)
(0.00054267038 -9.2193231e-09 3.403425e-12)
(0.00062676386 1.0293599e-08 1.8474337e-12)
(0.00062675351 1.1094679e-08 2.5781718e-12)
(0.00062675294 -9.8363278e-09 1.7256464e-12)
(0.00062676293 -1.0557426e-08 2.543959e-12)
(0.00075140292 1.1701901e-08 1.3391113e-12)
(0.00075139053 1.2726081e-08 1.9131218e-12)
(0.00075138974 -1.1260028e-08 1.276087e-12)
(0.0007514017 -1.2203292e-08 1.8950203e-12)
(0.00092756605 1.3353622e-08 9.7228757e-13)
(0.00092755165 1.4673666e-08 1.4157629e-12)
(0.00092755059 -1.2922712e-08 9.4312167e-13)
(0.00092756446 -1.4160458e-08 1.407291e-12)
(0.0011689975 1.5236963e-08 7.0714638e-13)
(0.0011689812 1.6942288e-08 1.0451596e-12)
(0.0011689798 -1.4813114e-08 6.9678676e-13)
(0.0011689955 -1.6434373e-08 1.042216e-12)
(0.0014927059 1.7335294e-08 5.1517644e-13)
(0.0014926877 1.9535433e-08 7.6990005e-13)
(0.0014926859 -1.6915281e-08 5.1467662e-13)
(0.0014927033 -1.9029309e-08 7.6993991e-13)
(0.0019195375 1.9624331e-08 3.7594214e-13)
(0.0019195176 2.2452434e-08 5.6600589e-13)
(0.0019195153 -1.9205714e-08 3.8011382e-13)
(0.0019195343 -2.1945531e-08 5.6752901e-13)
(0.0024748101 2.2069692e-08 2.7476781e-13)
(0.0024747888 2.568589e-08 4.1538969e-13)
(0.0024747859 -2.1650876e-08 2.8071626e-13)
(0.0024748062 -2.5176664e-08 4.1748798e-13)
(0.0031889883 2.4624872e-08 2.0111747e-13)
(0.0031889659 2.9219234e-08 3.0434365e-13)
(0.0031889622 -2.4205118e-08 2.0730593e-13)
(0.0031889835 -2.8707215e-08 3.065519e-13)
(0.0040983784 2.7229705e-08 1.4740625e-13)
(0.0040983555 3.3024417e-08 2.2266021e-13)
(0.0040983509 -2.6809091e-08 1.5308888e-13)
(0.0040983728 -3.2510196e-08 2.2471656e-13)
(0.005245817 2.9809458e-08 1.0816075e-13)
(0.005245794 3.7059717e-08 1.6268515e-13)
(0.0052457884 -2.9388809e-08 1.1304748e-13)
(0.0052458103 -3.6544896e-08 1.644726e-13)
(0.00668132 3.2274739e-08 7.9441049e-14)
(0.0066812977 4.126774e-08 1.1871618e-13)
(0.0066812909 -3.1855519e-08 8.3470139e-14)
(0.0066813122 -4.0754833e-08 1.2020595e-13)
(0.008462656 3.4522406e-08 5.8389442e-14)
(0.0084626354 4.5573686e-08 8.652679e-14)
(0.0084626272 -3.410659e-08 6.1620483e-14)
(0.0084626472 -4.5065998e-08 8.7733188e-14)
(0.0106558 3.6437703e-08 4.2936841e-14)
(0.010655782 4.9884039e-08 6.2992284e-14)
(0.010655773 -3.6027643e-08 4.5467781e-14)
(0.01065579 -4.9385516e-08 6.3948643e-14)
(0.01333522 3.7897801e-08 3.1581427e-14)
(0.013335206 5.4085848e-08 4.5807165e-14)
(0.013335195 -3.7496084e-08 3.3532616e-14)
(0.013335209 -5.3600903e-08 4.6552583e-14)
(0.016583943 3.8776858e-08 2.3230126e-14)
(0.016583934 5.8046795e-08 3.3272718e-14)
(0.016583921 -3.838617e-08 2.4717044e-14)
(0.016583932 -5.758013e-08 3.3846524e-14)
(0.020493353 3.895264e-08 1.7084279e-14)
(0.02049335 6.1616317e-08 2.4140716e-14)
(0.020493335 -3.8575632e-08 1.8207835e-14)
(0.020493341 -6.1172719e-08 2.4578036e-14)
(0.02516266 3.8314575e-08 1.256039e-14)
(0.025162665 6.4628037e-08 1.7494661e-14)
(0.025162648 -3.7953734e-08 1.3402857e-14)
(0.025162649 -6.4212173e-08 1.7825952e-14)
(0.030698008 3.6772967e-08 9.2301472e-15)
(0.030698023 6.6903782e-08 1.2662565e-14)
(0.030698004 -3.6430503e-08 9.8573499e-15)
(0.030697998 -6.6519987e-08 1.2914292e-14)
(0.03721117 3.4268883e-08 6.778449e-15)
(0.037211195 6.8259499e-08 9.1533e-15)
(0.037211175 -3.3946618e-08 7.2431516e-15)
(0.037211163 -6.7911553e-08 9.3460508e-15)
(0.044817813 3.0784028e-08 4.9744424e-15)
(0.04481785 6.8513279e-08 6.6076081e-15)
(0.044817828 -3.04833e-08 5.3164038e-15)
(0.04481781 -6.820419e-08 6.7574278e-15)
(0.053635327 2.6349705e-08 3.6476902e-15)
(0.053635377 6.7495679e-08 4.762601e-15)
(0.053635354 -2.6071273e-08 3.896297e-15)
(0.053635329 -6.722747e-08 4.8807037e-15)
(0.06378022 2.1053802e-08 2.673014e-15)
(0.063780284 6.5062348e-08 3.4261367e-15)
(0.06378026 -2.0797776e-08 2.8492112e-15)
(0.063780229 -6.4835858e-08 3.5227519e-15)
(0.075365125 1.504466e-08 1.9554248e-15)
(0.075365202 6.1108767e-08 2.4597146e-15)
(0.075365177 -1.4810443e-08 2.0797336e-15)
(0.075365142 -6.0923489e-08 2.5406775e-15)
(0.088495472 8.5306902e-09 1.4284234e-15)
(0.088495562 5.5586639e-08 1.7614189e-15)
(0.088495537 -8.3169578e-09 1.5144482e-15)
(0.088495499 -5.5440602e-08 1.830918e-15)
(0.10326592 1.7747747e-09 1.0415699e-15)
(0.10326602 4.8521087e-08 1.2560529e-15)
(0.103266 -1.5795037e-09 1.099771e-15)
(0.10326596 -4.8410814e-08 1.3202447e-15)
(0.11975664 -4.9171561e-09 7.5609886e-16)
(0.11975675 4.0027435e-08 8.9121744e-16)
(0.11975673 5.0965988e-09 7.9665702e-16)
(0.11975669 -3.9948005e-08 9.542428e-16)
(0.1380296 -1.1213487e-08 5.4612947e-16)
(0.13802973 3.0325926e-08 6.296111e-16)
(0.1380297 1.1380151e-08 5.7497728e-16)
(0.13802967 -3.0271171e-08 6.9046974e-16)
(0.15812504 -1.6779582e-08 3.9139336e-16)
(0.15812517 1.975229e-08 4.3823859e-16)
(0.15812514 1.693662e-08 4.1383047e-16)
(0.15812512 -1.9715164e-08 5.0454033e-16)
(0.18005814 -2.1304299e-08 2.7694519e-16)
(0.18005827 8.7617737e-09 3.0045318e-16)
(0.18005824 2.1454518e-08 2.9845722e-16)
(0.18005823 -8.7349095e-09 3.6789639e-16)
(0.20381628 -2.4528073e-08 1.9607917e-16)
(0.20381641 -2.0759999e-09 1.9946341e-16)
(0.20381638 2.4673347e-08 2.1402499e-16)
(0.20381638 2.0995636e-09 2.6871275e-16)
(0.22935689 -2.6269477e-08 1.3348843e-16)
(0.22935701 -1.2094457e-08 1.288699e-16)
(0.22935698 2.6410047e-08 1.545635e-16)
(0.229357 1.2120358e-08 1.965853e-16)
(0.25660601 -2.6446886e-08 8.9549257e-17)
(0.25660612 -2.0563307e-08 7.918005e-17)
(0.25660609 2.6580645e-08 1.0810199e-16)
(0.25660611 2.0594871e-08 1.483161e-16)
(0.28545781 -2.5092236e-08 5.8596273e-17)
(0.2854579 -2.6742544e-08 4.3666544e-17)
(0.28545786 2.5214236e-08 7.730221e-17)
(0.28545791 2.6779973e-08 1.1508847e-16)
(0.31577506 -2.235433e-08 3.6365675e-17)
(0.31577513 -2.9962479e-08 1.6171328e-17)
(0.31577509 2.2456957e-08 5.941525e-17)
(0.31577515 3.0002525e-08 9.3724502e-17)
(0.34739061 -1.8487983e-08 2.0345648e-17)
(0.34739066 -2.9725834e-08 3.2248653e-18)
(0.34739061 1.8562402e-08 5.553213e-17)
(0.34739068 2.9762405e-08 7.3546485e-17)
(0.38010986 -1.3829683e-08 4.8589678e-18)
(0.38010988 -2.5825546e-08 -6.6308455e-18)
(0.38010983 1.3868518e-08 5.539782e-17)
(0.38010991 2.5851783e-08 6.9978375e-17)
(0.41371425 -8.8142753e-09 -3.0496416e-18)
(0.41371425 -1.8602363e-08 -1.0490426e-17)
(0.41371421 8.8158936e-09 5.4829628e-17)
(0.41371429 1.8614436e-08 6.952189e-17)
(0.44796559 -4.1390143e-09 -9.4878291e-18)
(0.44796557 -9.6333311e-09 -2.2843677e-18)
(0.44796553 4.1191224e-09 5.1521627e-17)
(0.4479656 9.641188e-09 5.6116966e-17)
(0.48261107 -1.0794944e-09 -1.8807e-17)
(0.48261105 -2.7257042e-09 2.2882701e-18)
(0.48261104 1.0782248e-09 3.7563796e-17)
(0.48261107 2.730472e-09 2.8361509e-17)
(-0.0083365923 -1.0267701e-09 5.2303404e-11)
(-0.0083365829 -5.6556603e-10 -5.4718511e-11)
(-0.0083365836 1.0814193e-09 -2.4239145e-11)
(-0.0083365917 9.7684886e-10 -9.3660826e-11)
(-0.01145757 -1.6666362e-09 5.6838486e-11)
(-0.011457564 -1.0898131e-09 -6.6148569e-11)
(-0.011457566 1.8609005e-09 -2.0714155e-11)
(-0.011457568 1.919547e-09 -1.1396487e-10)
(-0.0094398379 -1.3553626e-10 4.7557836e-11)
(-0.0094398517 -5.0073983e-10 -6.1912129e-11)
(-0.009439853 5.7831412e-10 -1.7134532e-11)
(-0.0094398351 1.2768739e-09 -1.1042273e-10)
(-0.0063324723 4.1777961e-09 3.5375862e-11)
(-0.0063325077 3.2123218e-09 -5.284212e-11)
(-0.0063325087 -3.462456e-09 -1.3931199e-11)
(-0.0063324698 -2.3064694e-09 -9.8209512e-11)
(-0.0035548085 1.0595929e-08 2.4676985e-11)
(-0.0035548573 9.3350616e-09 -4.4334543e-11)
(-0.0035548576 -9.6138526e-09 -1.1074024e-11)
(-0.0035548079 -8.327739e-09 -8.2707855e-11)
(-0.0015362251 1.6946503e-08 1.6562672e-11)
(-0.0015362694 1.5804783e-08 -3.6008647e-11)
(-0.0015362692 -1.5760042e-08 -8.6320051e-12)
(-0.0015362268 -1.471162e-08 -6.6856241e-11)
(-0.00026607654 2.1251114e-08 1.0902404e-11)
(-0.00026610488 2.0538259e-08 -2.8215924e-11)
(-0.00026610446 -1.994563e-08 -6.4447844e-12)
(-0.00026607963 -1.9382013e-08 -5.2258816e-11)
(0.00042807923 2.2924525e-08 7.1543935e-12)
(0.00042806942 2.2723847e-08 -2.1475887e-11)
(0.00042807003 -2.1581688e-08 -4.6201468e-12)
(0.00042807598 -2.1534583e-08 -3.9701118e-11)
(0.000741049 2.234803e-08 4.7503839e-12)
(0.00074105444 2.2577518e-08 -1.5840208e-11)
(0.00074105515 -2.1036861e-08 -3.1776022e-12)
(0.00074104636 -2.1388637e-08 -2.9426156e-11)
(0.00083193346 2.0303402e-08 3.2245523e-12)
(0.00083194853 2.0813017e-08 -1.1258658e-11)
(0.00083194926 -1.907123e-08 -2.0838776e-12)
(0.00083193169 -1.9654403e-08 -2.1337396e-11)
(0.00081039082 1.7578702e-08 2.2499508e-12)
(0.00081041006 1.8220874e-08 -7.7209987e-12)
(0.00081041075 -1.6451053e-08 -1.2932151e-12)
(0.00081038986 -1.7115739e-08 -1.5167646e-11)
(0.00074300848 1.4779406e-08 1.6024026e-12)
(0.00074302777 1.5443402e-08 -5.1624164e-12)
(0.00074302837 -1.3764524e-08 -7.5107581e-13)
(0.00074300811 -1.4407322e-08 -1.0589751e-11)
(0.00066566073 1.2284462e-08 1.1584421e-12)
(0.00066567755 1.2904375e-08 -3.3910913e-12)
(0.00066567805 -1.1378989e-08 -3.9772087e-13)
(0.00066566071 -1.1945651e-08 -7.2744694e-12)
(0.0005951539 1.0279919e-08 8.3911801e-13)
(0.00059516706 1.0827916e-08 -2.2075075e-12)
(0.00059516745 -9.4741785e-09 -1.8250352e-13)
(0.00059515404 -9.9491832e-09 -4.9242024e-12)
(0.00053791912 8.8191992e-09 6.0204755e-13)
(0.0005379283 9.2943048e-09 -1.451231e-12)
(0.00053792858 -8.1010185e-09 -5.9147958e-14)
(0.00053791929 -8.4941217e-09 -3.2916167e-12)
(0.00049566122 7.8804448e-09 4.2372218e-13)
(0.00049566661 8.2983799e-09 -9.3026208e-13)
(0.00049566679 -7.2374229e-09 6.6498292e-15)
(0.00049566133 -7.5724426e-09 -2.1779647e-12)
(0.00046864785 7.4092114e-09 2.876077e-13)
(0.00046864984 7.7947205e-09 -5.8367547e-13)
(0.00046864992 -6.8297114e-09 3.8238237e-14)
(0.00046864786 -7.1372008e-09 -1.4124621e-12)
(0.00045743468 7.3450779e-09 1.9508663e-13)
(0.00045743368 7.7273894e-09 -3.6015812e-13)
(0.00045743366 -6.8184401e-09 5.0516753e-14)
(0.00045743455 -7.1313549e-09 -9.0160886e-13)
(0.00046367993 7.634875e-09 1.2552385e-13)
(0.00046367629 8.0465773e-09 -2.195171e-13)
(0.00046367617 -7.1517493e-09 5.1792121e-14)
(0.00046367965 -7.5042325e-09 -5.6969956e-13)
(0.00049050338 8.2379112e-09 7.5607772e-14)
(0.00049049735 8.7154206e-09 -1.3368242e-13)
(0.00049049711 -7.7900874e-09 4.6013789e-14)
(0.00049050292 -8.2188538e-09 -3.569917e-13)
(0.00054267131 9.1261851e-09 4.1676646e-14)
(0.00054266306 9.7110233e-09 -8.2275947e-14)
(0.00054266268 -8.706232e-09 3.5705359e-14)
(0.00054267065 -9.252404e-09 -2.2260657e-13)
(0.00062676419 1.0281362e-08 1.9607949e-14)
(0.00062675381 1.1022453e-08 -5.2172606e-14)
(0.00062675327 -9.8826061e-09 2.6018257e-14)
(0.00062676328 -1.059418e-08 -1.387742e-13)
(0.00075140335 1.1691005e-08 6.0489865e-15)
(0.0007513909 1.2647487e-08 -3.4746802e-14)
(0.00075139015 -1.1307402e-08 1.8436071e-14)
(0.00075140214 -1.2242368e-08 -8.6922679e-14)
(0.00092756658 1.3344727e-08 -1.6215637e-15)
(0.00092755211 1.4589065e-08 -2.4589147e-14)
(0.0009275511 -1.2970893e-08 1.29152e-14)
(0.00092756501 -1.4200503e-08 -5.5006738e-14)
(0.0011689982 1.5230572e-08 -5.385592e-15)
(0.0011689817 1.6851912e-08 -1.8472603e-14)
(0.0011689804 -1.4861888e-08 9.1088369e-15)
(0.0011689962 -1.6474072e-08 -3.5357497e-14)
(0.0014927067 1.7331785e-08 -6.6884181e-15)
(0.0014926883 1.9439451e-08 -1.4540951e-14)
(0.0014926866 -1.6964496e-08 6.6080259e-15)
(0.0014927041 -1.9067407e-08 -2.3177228e-14)
(0.0019195384 1.9623965e-08 -6.5513536e-15)
(0.0019195184 2.2351002e-08 -1.178304e-14)
(0.0019195162 -1.9255271e-08 5.0323505e-15)
(0.0019195353 -2.1980832e-08 -1.5515988e-14)
(0.0024748113 2.2072608e-08 -5.6637893e-15)
(0.0024747898 2.5579195e-08 -9.6490249e-15)
(0.002474787 -2.1700714e-08 4.070183e-15)
(0.0024748074 -2.5208032e-08 -1.0587928e-14)
(0.0031889897 2.4631076e-08 -4.4733794e-15)
(0.0031889671 2.9107532e-08 -7.8953005e-15)
(0.0031889635 -2.4255207e-08 3.4907967e-15)
(0.003188985 -2.8733561e-08 -7.3264782e-15)
(0.0040983801 2.7239057e-08 -3.2493645e-15)
(0.0040983568 3.2908067e-08 -6.393043e-15)
(0.0040983524 -2.6859422e-08 3.1308053e-15)
(0.0040983744 -3.2530478e-08 -5.1007246e-15)
(0.0052458189 2.982166e-08 -2.1405745e-15)
(0.0052457956 3.693921e-08 -5.0960622e-15)
(0.0052457902 -2.9439386e-08 2.8831901e-15)
(0.0052458123 -3.6558122e-08 -3.5382791e-15)
(0.0066813222 3.2289309e-08 -1.2172577e-15)
(0.0066812996 4.1143726e-08 -3.9879093e-15)
(0.0066812929 -3.1906342e-08 2.6829583e-15)
(0.0066813144 -4.0760074e-08 -2.4178544e-15)
(0.0084626586 3.4538667e-08 -4.9814818e-16)
(0.0084626375 4.5446996e-08 -3.0564112e-15)
(0.0084626295 -3.4157643e-08 2.4929202e-15)
(0.0084626497 -4.5062405e-08 -1.60585e-15)
(0.010655803 3.6454764e-08 2.7447752e-17)
(0.010655785 4.9755705e-08 -2.2903332e-15)
(0.010655775 -3.6078876e-08 2.2852981e-15)
(0.010655793 -4.9372355e-08 -1.0157142e-15)
(0.013335223 3.7914539e-08 3.8536927e-16)
(0.013335209 5.3957106e-08 -1.6740406e-15)
(0.013335198 -3.7547388e-08 2.068999e-15)
(0.013335213 -5.3577593e-08 -5.9136923e-16)
(0.016583947 3.8791911e-08 6.069325e-16)
(0.016583937 5.7919092e-08 -1.1892506e-15)
(0.016583924 -3.8437346e-08 1.8503534e-15)
(0.016583936 -5.7546295e-08 -2.910141e-16)
(0.020493357 3.8964396e-08 7.2370294e-16)
(0.020493353 6.1491302e-08 -8.1689596e-16)
(0.020493339 -3.8626366e-08 1.6335988e-15)
(0.020493345 -6.112825e-08 -8.4955503e-17)
(0.025162664 3.8321174e-08 7.6402314e-16)
(0.025162669 6.4507536e-08 -5.3797436e-16)
(0.025162652 -3.8003569e-08 1.423717e-15)
(0.025162653 -6.4157288e-08 5.0577488e-17)
(0.030698012 3.6772314e-08 7.516758e-16)
(0.030698026 6.6789774e-08 -3.3478242e-16)
(0.030698008 -3.647881e-08 1.2254155e-15)
(0.030698002 -6.6455297e-08 1.3459225e-16)
(0.037211174 3.4258676e-08 7.0508089e-16)
(0.037211199 6.8154066e-08 -1.9074239e-16)
(0.037211179 -3.399258e-08 1.042647e-15)
(0.037211167 -6.7838123e-08 1.8179032e-16)
(0.044817818 3.0761806e-08 6.3954706e-16)
(0.044817854 6.8418553e-08 -9.2895074e-17)
(0.044817833 -3.0525896e-08 8.7760275e-16)
(0.044817814 -6.8123585e-08 2.0400216e-16)
(0.053635332 2.6312922e-08 5.6537765e-16)
(0.053635381 6.7413765e-08 -2.8613038e-17)
(0.053635358 -2.6109296e-08 7.3183765e-16)
(0.053635334 -6.7141777e-08 2.0731558e-16)
(0.063780225 2.0999932e-08 4.8728099e-16)
(0.063780287 6.4995233e-08 1.2075663e-17)
(0.063780264 -2.0829859e-08 6.0743837e-16)
(0.063780233 -6.4747685e-08 1.9752517e-16)
(0.075365129 1.4971339e-08 4.1154207e-16)
(0.075365205 6.1058219e-08 3.7491031e-17)
(0.075365181 -1.4835123e-08 5.0041479e-16)
(0.075365146 -6.0835915e-08 1.7966564e-16)
(0.088495476 8.4358916e-09 3.4207434e-16)
(0.088495565 5.5554085e-08 5.1842468e-17)
(0.088495541 -8.3327704e-09 4.0952555e-16)
(0.088495503 -5.5357076e-08 1.5777561e-16)
(0.10326592 1.6570315e-09 2.7850874e-16)
(0.10326602 4.8507481e-08 5.9227816e-17)
(0.103266 -1.5851154e-09 3.3530561e-16)
(0.10326596 -4.8335001e-08 1.346664e-16)
(0.11975664 -5.058496e-09 2.2347695e-16)
(0.11975675 4.0033121e-08 6.126021e-17)
(0.11975673 5.1022182e-09 2.7285247e-16)
(0.11975669 -3.9883559e-08 1.1218938e-16)
(0.13802961 -1.1377996e-08 1.7994116e-16)
(0.13802973 3.0350499e-08 5.7923571e-17)
(0.1380297 1.1397541e-08 2.1901104e-16)
(0.13802967 -3.0221451e-08 9.2846205e-17)