/*--------------------------------*- C++ -*----------------------------------*\
| =========                 |                                                 |
| \\      /  F ield         | OpenFOAM: The Open Source CFD Toolbox           |
|  \\    /   O peration     | Version:  3.0.1                                 |
|   \\  /    A nd           | Web:      www.OpenFOAM.org                      |
|    \\/     M anipulation  |                                                 |
\*---------------------------------------------------------------------------*/
FoamFile
{
    version     2.0;
    format      ascii;
    class       surfaceScalarField;
    location    "75";
    object      phi;
}
// * * * * * * * * * * * * * * * * * * * * * * * * * * * * * * * * * * * * * //

dimensions      [0 3 -1 0 0 0 0];

internalField   nonuniform List<scalar> 
1072
(
-0.10832672
4.5858736e-08
9.5231599e-09
-0.1083268
7.24706e-08
2.4009218e-09
-0.10832674
-5.5225841e-08
1.3942866e-09
-7.1918999e-08
6.1148416e-09
-0.010327033
1.3675334e-07
1.1036614e-09
-0.01032718
2.0670001e-07
1.8930395e-09
-0.010327052
-1.8341899e-07
-3.6934977e-10
-1.9994515e-07
4.5929996e-09
0.0099449767
2.0159688e-07
-1.4752592e-09
0.0099448876
2.8729217e-07
1.7769817e-09
0.0099449591
-2.664717e-07
-1.2149819e-09
-2.9337357e-07
3.5448381e-09
0.011563332
2.2581954e-07
-3.3347561e-09
0.011563296
3.15669e-07
1.1769425e-09
0.011563326
-2.9419137e-07
-1.3022426e-09
-3.335169e-07
3.1099341e-09
0.012055549
1.7572675e-07
-3.872919e-09
0.012055597
2.6112731e-07
4.9890101e-10
0.012055549
-2.4507196e-07
-1.3487173e-09
-2.8928512e-07
2.6308278e-09
0.011883598
1.1999057e-07
-3.8342745e-09
0.011883663
1.9199205e-07
-4.4723207e-11
0.011883605
-1.8991679e-07
-1.2199681e-09
-2.2922513e-07
2.2668358e-09
0.011154205
7.5073421e-08
-3.4106111e-09
0.011154263
1.3205935e-07
-2.9930361e-10
0.011154215
-1.4552301e-07
-1.0594005e-09
-1.7689899e-07
1.9340131e-09
0.010498342
4.421772e-08
-2.8635324e-09
0.010498386
8.7562907e-08
-3.8492462e-10
0.010498351
-1.1521922e-07
-8.9247554e-10
-1.3855149e-07
1.616433e-09
0.010187994
3.1681419e-08
-2.3173817e-09
0.010188018
6.3479266e-08
-3.8536109e-10
0.010188002
-1.0311032e-07
-7.8673005e-10
-1.1929541e-07
1.3184981e-09
0.010091798
3.6649149e-08
-1.8334592e-09
0.010091802
5.9586118e-08
-3.4996536e-10
0.010091804
-1.0817511e-07
-7.4813927e-10
-1.1903561e-07
1.0507011e-09
0.0099590702
5.2530609e-08
-1.4264842e-09
0.0099590612
6.9596081e-08
-3.0488485e-10
0.0099590738
-1.2381463e-07
-6.3082353e-10
-1.3157473e-07
8.2262792e-10
0.0096179903
7.1454447e-08
-1.0994732e-09
0.0096179759
8.5264903e-08
-2.6266452e-10
0.0096179919
-1.4207137e-07
-5.1917503e-10
-1.4873113e-07
6.1631442e-10
0.009025238
8.8095562e-08
-8.4145296e-10
0.0090252241
1.0051593e-07
-2.2673314e-10
0.0090252382
-1.5757411e-07
-4.1838786e-10
-1.6449143e-07
4.4678521e-10
0.0082320847
1.0092122e-07
-6.4083989e-10
0.0082320737
1.1304545e-07
-1.9649478e-10
0.0082320842
-1.687503e-07
-3.3107907e-10
-1.7661062e-07
3.1162221e-10
0.0073308764
1.1144065e-07
-4.8775173e-10
0.0073308673
1.2382559e-07
-1.6997713e-10
0.0073308754
-1.7707079e-07
-2.5788184e-10
-1.8611429e-07
2.0776265e-10
0.0064141369
1.2276329e-07
-3.742769e-10
0.0064141269
1.3573317e-07
-1.4516756e-10
0.0064141358
-1.8561463e-07
-1.9795041e-10
-1.9592781e-07
1.3182347e-10
0.0055539741
1.3834907e-07
-2.9449822e-10
0.0055539597
1.5225118e-07
-1.204879e-10
0.0055539727
-1.9782682e-07
-1.4954076e-10
-2.095819e-07
8.0856024e-11
0.0047977811
1.6127658e-07
-2.4406491e-10
0.0047977589
1.7665156e-07
-9.4856257e-11
0.0047977792
-2.1679132e-07
-1.105947e-10
-2.3040046e-07
5.256116e-11
0.0041733239
1.9399709e-07
-2.1968124e-10
0.0041732912
2.116787e-07
-6.7557671e-11
0.0041733211
-2.449864e-07
-7.9078596e-11
-2.6118751e-07
4.5153149e-11
0.0036974976
2.384014e-07
-2.1878758e-10
0.0036974521
2.5957982e-07
-3.8116319e-11
0.0036974936
-2.8434971e-07
-5.3141172e-11
-3.0425895e-07
5.7185065e-11
0.003385332
2.9602056e-07
-2.3939982e-10
0.0033852717
3.2230223e-07
-6.2196337e-12
0.0033853263
-3.3647521e-07
-3.1141379e-11
-3.6163912e-07
8.7431359e-11
0.0032578394
3.6823152e-07
-2.8002181e-10
0.0032577625
4.0172004e-07
2.8318731e-11
0.0032578316
-4.0281669e-07
-9.3241221e-12
-4.3528562e-07
1.3484082e-10
0.0033486122
4.5639754e-07
-3.3963981e-10
0.0033485166
4.9981108e-07
6.5571528e-11
0.0033486017
-4.8480602e-07
1.5420346e-12
-5.2726328e-07
1.98543e-10
0.0037097388
5.6191766e-07
-4.1765451e-10
0.0037096221
6.1875004e-07
1.0552849e-10
0.0037097246
-5.8393605e-07
1.9253157e-11
-6.3983639e-07
2.7781212e-10
0.0044178272
6.8618582e-07
-5.1381696e-10
0.0044176871
7.6091388e-07
1.4952008e-10
0.0044178085
-7.0168768e-07
3.9481523e-11
-7.7547374e-07
3.7210062e-10
0.0055808896
8.304736e-07
-6.2846504e-10
0.0055807235
9.2882391e-07
1.9305184e-10
0.0055808651
-8.3941474e-07
6.2128483e-11
-9.3677942e-07
4.8139834e-10
0.0073467023
9.9574841e-07
-7.616042e-10
0.0073465077
1.1250043e-06
2.3710379e-10
0.0073466704
-9.9816435e-07
8.8236229e-11
-1.1263594e-06
6.0530144e-10
0.0099130886
1.1824453e-06
-9.1328644e-10
0.0099128629
1.3518004e-06
2.8180859e-10
0.0099130473
-1.178448e-06
1.1897562e-10
-1.3466384e-06
7.4343897e-10
0.01354041
1.3902036e-06
-1.0833264e-09
0.013540151
1.6111547e-06
3.2588209e-10
0.013540357
-1.3799779e-06
1.5542177e-10
-1.599633e-06
8.9532167e-10
0.018566399
1.6175828e-06
-1.2710831e-09
0.018566106
1.9043427e-06
3.6792401e-10
0.018566331
-1.6013821e-06
1.9846309e-10
-1.8866882e-06
1.0601741e-09
0.025423316
1.8617724e-06
-1.4752357e-09
0.025422989
2.2316773e-06
4.0640238e-10
0.025423231
-1.8399151e-06
2.4872691e-10
-2.2081821e-06
1.2367612e-09
0.034657235
2.1183191e-06
-1.6935571e-09
0.034656874
2.5921879e-06
4.3966621e-10
0.034657129
-2.091184e-06
3.0650029e-10
-2.5632047e-06
1.42321e-09
0.046949057
2.380897e-06
-1.9227021e-09
0.046948664
2.9832852e-06
4.6596856e-10
0.046948926
-2.3489198e-06
3.7164202e-10
-2.9492237e-06
1.6168379e-09
0.063136619
2.6411576e-06
-2.1580214e-09
0.063136199
3.4004265e-06
4.8356311e-10
0.063136459
-2.6048269e-06
4.4349286e-10
-3.3617494e-06
1.8139957e-09
0.084236977
2.8886993e-06
-2.3934115e-09
0.084236538
3.8368021e-06
4.9076684e-10
0.084236785
-2.8485518e-06
5.207825e-10
-3.7940214e-06
2.0099369e-09
0.11146762
3.1112016e-06
-2.6212383e-09
0.11146717
4.2830713e-06
4.8607803e-10
0.11146739
-3.0678171e-06
6.0155348e-10
-4.2367436e-06
2.1987274e-09
0.14626507
3.2947653e-06
-2.8323351e-09
0.14626462
4.7271789e-06
4.6832199e-10
0.14626481
-3.2487606e-06
6.8311217e-10
-4.6779002e-06
2.373211e-09
0.19029903
3.4244971e-06
-3.0161102e-09
0.19029859
5.1542949e-06
4.36821e-10
0.19029872
-3.3765177e-06
7.6202265e-10
-5.102694e-06
2.5250434e-09
0.24547988
3.4853561e-06
-3.1607848e-09
0.24547949
5.5469216e-06
3.9158498e-10
0.24547955
-3.4360664e-06
8.3416061e-10
-5.4936509e-06
2.644815e-09
0.31395747
3.4632613e-06
-3.2537789e-09
0.31395712
5.8852179e-06
3.3351265e-10
0.3139571
-3.4133319e-06
8.9484423e-10
-5.8309422e-06
2.7222717e-09
0.39810858
3.3464214e-06
-3.2822549e-09
0.39810831
6.1475937e-06
2.6458925e-10
0.39810819
-3.2965135e-06
9.3905591e-10
-6.0929766e-06
2.7466475e-09
0.50051128
3.1268117e-06
-3.2338222e-09
0.50051111
6.3116223e-06
1.8806063e-10
0.50051089
-3.077559e-06
9.6176348e-10
-6.2573089e-06
2.7071094e-09
0.62390418
2.801676e-06
-3.097387e-09
0.62390413
6.3553089e-06
1.085575e-10
0.6239038
-2.7536643e-06
9.5834048e-10
-6.3019067e-06
2.5933159e-09
0.7711294
2.3748895e-06
-2.8641196e-09
0.77112949
6.2587334e-06
3.2138214e-11
0.77112906
-2.3286355e-06
9.2507319e-10
-6.2067924e-06
2.3960804e-09
0.94505911
1.8579838e-06
-2.5284885e-09
0.94505936
6.006051e-06
-3.3785751e-11
0.94505884
-1.8139149e-06
8.5972633e-10
-5.9560436e-06
2.108122e-09
1.148506
1.27062e-06
-2.089294e-09
1.1485064
5.5877846e-06
-8.0677746e-11
1.1485059
-1.2290579e-06
7.6212289e-10
-5.5400889e-06
1.724873e-09
1.3841201
6.403049e-07
-1.5506098e-09
1.3841206
5.003277e-06
-9.9289908e-11
1.38412
-6.0145645e-07
6.3467552e-10
-4.9581666e-06
1.2453026e-09
1.654274
1.1948246e-09
-9.2253338e-10
1.6542747
4.2630947e-06
-8.0286708e-11
1.6542741
3.4844773e-08
4.8278771e-10
-4.2207383e-06
6.7270146e-10
1.9609428
-6.0808003e-07
-2.216743e-10
1.9609437
3.3910885e-06
-1.5087156e-11
1.9609431
6.4130927e-07
3.1505237e-10
-3.3515632e-06
1.5361237e-11
2.3055824
-1.1475118e-06
5.2902089e-10
2.3055833
2.4257361e-06
1.0308628e-10
2.3055828
1.1779853e-06
1.4309958e-10
-2.3890569e-06
-7.1292029e-10
2.6890136
-1.5795167e-06
1.3005575e-09
2.6890146
1.420324e-06
2.7797577e-10
2.6890142
1.6072871e-06
-1.8870959e-11
-1.3864905e-06
-1.4925887e-09
3.1113195
-1.8730637e-06
2.0592677e-09
3.1113205
4.4147962e-07
5.0894937e-10
3.1113202
1.898106e-06
-1.5508214e-10
-4.1053641e-07
-2.2983922e-09
3.5717623
-2.0076233e-06
2.7687518e-09
3.5717632
-4.3445804e-07
7.8963173e-10
3.5717631
2.0297484e-06
-2.495905e-10
4.6235522e-07
-3.0997525e-09
4.0687265
-1.9763753e-06
3.3926849e-09
4.0687272
-1.1277549e-06
1.1066766e-09
4.0687272
1.9951505e-06
-2.8804462e-10
1.1522845e-06
-3.8615786e-09
4.5996948
-1.7882136e-06
3.8984857e-09
4.5996953
-1.564867e-06
1.4386519e-09
4.5996955
1.8029182e-06
-2.5940758e-10
1.5855263e-06
-4.545035e-09
5.1612601
-1.4684061e-06
4.2617724e-09
5.1612603
-1.6920515e-06
1.7558193e-09
5.1612606
1.4780673e-06
-1.5699637e-10
1.7082198e-06
-5.1087652e-09
5.7491756
-1.0582981e-06
4.4711004e-09
5.7491754
-1.4938797e-06
2.0220655e-09
5.7491758
1.0618824e-06
2.2562428e-11
1.5050107e-06
-5.5108743e-09
6.3584437
-6.1509046e-07
4.530101e-09
6.3584432
-1.0172987e-06
2.1996673e-09
6.3584436
6.1198802e-07
2.87752e-10
1.0233209e-06
-5.710544e-09
6.98344
-2.1638152e-07
4.4476662e-09
6.9834394
-4.0892417e-07
2.2469501e-09
6.9834398
2.0743292e-07
6.7489095e-10
4.1094814e-07
-5.6492837e-09
7.6180689
3.7684164e-09
7.6180684
1.8834742e-09
7.6180687
1.1618511e-09
-4.673513e-09
-0.10832675
6.6673988e-08
-0.10832681
7.2467999e-08
-0.10832675
-6.3807665e-08
-7.6949979e-08
-0.010327082
1.6960642e-07
-0.010327215
1.9637684e-07
-0.010327098
-1.7680806e-07
-1.9789069e-07
0.0099449353
2.4035872e-07
0.0099448506
2.7413887e-07
0.0099449199
-2.5416859e-07
-2.8651493e-07
0.011563301
2.6045009e-07
0.011563267
3.0490216e-07
0.011563293
-2.8053153e-07
-3.2363377e-07
0.012055526
2.0514294e-07
0.012055573
2.5403256e-07
0.012055524
-2.3264933e-07
-2.7911766e-07
0.011883593
1.4512505e-07
0.011883654
1.891573e-07
0.011883598
-1.8015635e-07
-2.2120396e-07
0.011154207
9.5730954e-08
0.011154261
1.3205173e-07
0.011154214
-1.3750737e-07
-1.7085391e-07
0.010498346
6.0759502e-08
0.010498386
8.9033831e-08
0.010498354
-1.0825794e-07
-1.3390609e-07
0.010188
4.4907637e-08
0.01018802
6.5702942e-08
0.010188007
-9.7057916e-08
-1.1574333e-07
0.010091804
4.7317529e-08
0.010091805
6.2162254e-08
0.010091809
-1.0306043e-07
-1.1635621e-07
0.0099590745
6.1221557e-08
0.0099590623
7.2242026e-08
0.0099590775
-1.1945077e-07
-1.2951301e-07
0.0096179925
7.8588376e-08
0.0096179752
8.7795745e-08
0.0096179936
-1.3826259e-07
-1.4708246e-07
0.0090252384
9.4012529e-08
0.0090252221
1.0284349e-07
0.0090252382
-1.5416862e-07
-1.6310671e-07
0.0082320841
1.0590852e-07
0.0082320711
1.1516802e-07
0.0082320833
-1.6565535e-07
-1.7540538e-07
0.0073308755
1.1573422e-07
0.0073308647
1.2579776e-07
0.0073308744
-1.7423942e-07
-1.8505251e-07
0.0064141362
1.2654496e-07
0.0064141246
1.3763276e-07
0.0064141349
-1.8302546e-07
-1.9499994e-07
0.0055539737
1.417489e-07
0.0055539579
1.5415595e-07
0.0055539721
-1.9546861e-07
-2.0878862e-07
0.0047977809
1.6438061e-07
0.0047977575
1.7862794e-07
0.0047977788
-2.1465457e-07
-2.2974422e-07
0.0041733238
1.968581e-07
0.00417329
2.1377995e-07
0.0041733208
-2.4306023e-07
-2.6067037e-07
0.0036974974
2.4104987e-07
0.0036974508
2.6184934e-07
0.0036974931
-2.8262176e-07
-3.0388363e-07
0.0033853314
2.984737e-07
0.0033852702
3.2477865e-07
0.0033853255
-3.3493251e-07
-3.6141109e-07
0.0032578384
3.7049989e-07
0.0032577606
4.0444183e-07
0.0032578303
-4.0144207e-07
-4.3521501e-07
0.0033486105
4.5848923e-07
0.003348514
5.0281935e-07
0.0033485996
-4.8360933e-07
-5.2736643e-07
0.0037097362
5.6384044e-07
0.0037096187
6.2209137e-07
0.0037097216
-5.8290623e-07
-6.4013531e-07
0.0044178234
6.8794819e-07
0.0044176825
7.6464715e-07
0.0044178042
-7.0081348e-07
-7.7599646e-07
0.0055808845
8.320828e-07
0.0055807175
9.330044e-07
0.0055808593
-8.386861e-07
-9.375583e-07
0.0073466955
9.9721037e-07
0.0073464999
1.1296865e-06
0.0073466628
-9.9757125e-07
-1.1274311e-06
0.0099130795
1.183764e-06
0.0099128528
1.3570385e-06
0.0099130373
-1.1779786e-06
-1.3480433e-06
0.013540398
1.3913806e-06
0.013540138
1.6169983e-06
0.013540344
-1.3796169e-06
-1.6014141e-06
0.018566384
1.6186161e-06
0.018566089
1.910832e-06
0.018566315
-1.6011089e-06
-1.8888899e-06
0.025423297
1.8626566e-06
0.025422969
2.2388382e-06
0.025423211
-1.8397024e-06
-2.2108482e-06
0.034657212
2.119045e-06
0.034656849
2.600027e-06
0.034657104
-2.0909964e-06
-2.5663763e-06
0.046949028
2.3814523e-06
0.046948634
2.9917844e-06
0.046948895
-2.348713e-06
-2.9529358e-06
0.063136584
2.6415281e-06
0.063136164
3.4095383e-06
0.063136423
-2.6045472e-06
-3.3660275e-06
0.084236936
2.8888709e-06
0.084236495
3.8464453e-06
0.084236741
-2.8481372e-06
-3.7988769e-06
0.11146757
3.1111631e-06
0.11146712
4.293127e-06
0.11146734
-3.0671988e-06
-4.2421686e-06
0.14626502
3.2945125e-06
0.14626457
4.7374881e-06
0.14626475
-3.2478666e-06
-4.683862e-06
0.19029896
3.4240379e-06
0.19029853
5.1646573e-06
0.19029866
-3.3752782e-06
-5.1091288e-06
0.24547981
3.4847165e-06
0.24547941
5.5570961e-06
0.24547947
-3.4344204e-06
-5.5004581e-06
0.31395739
3.4624919e-06
0.31395705
5.894926e-06
0.31395702
-3.4112356e-06
-5.8379792e-06
0.39810849
3.3456036e-06
0.39810822
6.1565249e-06
0.3981081
-3.2939498e-06
-6.1000543e-06
0.50051119
3.1260635e-06
0.50051102
6.3194431e-06
0.5005108
-3.0745467e-06
-6.2641907e-06
0.62390408
2.8011546e-06
0.62390403
6.361675e-06
0.6239037
-2.7502668e-06
-6.3083103e-06
0.7711293
2.3747905e-06
0.7711294
6.2633062e-06
0.77112897
-2.3249657e-06
-6.2123963e-06
0.94505901
1.8585347e-06
0.94505927
6.0085177e-06
0.94505874
-1.8101367e-06
-5.9605006e-06
1.1485059
1.2720665e-06
1.1485064
5.5878828e-06
1.1485058
-1.2253809e-06
-5.5430459e-06
1.38412
6.4288901e-07
1.3841206
5.0008224e-06
1.3841199
-5.9812294e-07
-4.9592933e-06
1.6542739
5.1244904e-09
1.6542747
4.2580118e-06
1.654274
3.758148e-08
-4.2197633e-06
1.9609427
-6.0266899e-07
1.9609436
3.3834416e-06
1.960943
6.4321455e-07
-3.3483166e-06
2.3055823
-1.1405976e-06
2.3055833
2.4157586e-06
2.3055828
1.1788798e-06
-2.3835172e-06
2.6890136
-1.571233e-06
2.6890146
1.4084414e-06
2.6890142
1.6070861e-06
-1.3788298e-06
3.1113196
-1.8637327e-06
3.1113205
4.2832204e-07
3.1113202
1.8968565e-06
-4.0115784e-07
3.5717624
-1.997769e-06
3.5717632
-4.4806271e-07
3.5717631
2.0276569e-06
4.7280043e-07
4.0687266
-1.9667052e-06
4.0687273
-1.1408174e-06
4.0687273
1.9925948e-06
1.1629153e-06
4.5996949
-1.7795564e-06
4.5996954
-1.5763258e-06
4.5996956
1.800444e-06
1.5953151e-06
5.1612602
-1.4615985e-06
5.1612604
-1.7009513e-06
5.1612607
1.4763844e-06
1.7161886e-06
5.7491757
-1.0540374e-06
5.7491755
-1.4997206e-06
5.7491759
1.0619108e-06
1.5106377e-06
6.3584438
-6.1381125e-07
6.3584433
-1.0207375e-06
6.3584437
6.1509841e-07
1.0273821e-06
6.9834401
-2.1829231e-07
6.9834394
-4.1211748e-07
6.9834398
2.1574862e-07
4.1617909e-07
7.6180689
7.6180685
7.6180687
)
;

boundaryField
{
    movingWall
    {
        type            calculated;
        value           uniform 0;
    }
    CPLReceiveMD
    {
        type            calculated;
        value           uniform 0;
    }
    streamwiseIn
    {
        type            cyclic;
        value           nonuniform List<scalar> 
120
(
0.10832668
0.010326917
-0.0099450448
-0.011563366
-0.012055507
-0.011883547
-0.011154163
-0.010498313
-0.010187983
-0.010091804
-0.0099590872
-0.0096180103
-0.0090252555
-0.0082320982
-0.0073308872
-0.0064141481
-0.0055539891
-0.004797803
-0.0041733552
-0.0036975402
-0.0033853875
-0.0032579094
-0.003348698
-0.0037098418
-0.004417949
-0.0055810315
-0.0073468655
-0.0099132734
-0.013540616
-0.018566625
-0.02542356
-0.034657492
-0.04694932
-0.06313688
-0.084237226
-0.11146784
-0.14626526
-0.19029916
-0.24547995
-0.31395745
-0.39810846
-0.50051106
-0.62390385
-0.77112897
-0.94505859
-1.1485054
-1.3841194
-1.6542733
-1.9609422
-2.3055818
-2.6890132
-3.1113192
-3.5717622
-4.0687265
-4.599695
-5.1612605
-5.749176
-6.3584441
-6.9834404
-7.6180691
0.10832669
0.010326974
-0.0099449976
-0.011563322
-0.012055472
-0.011883533
-0.011154158
-0.010498311
-0.010187983
-0.010091805
-0.0099590873
-0.0096180086
-0.0090252523
-0.0082320943
-0.0073308834
-0.0064141448
-0.0055539865
-0.0047978009
-0.0041733534
-0.0036975385
-0.0033853857
-0.0032579071
-0.0033486951
-0.003709838
-0.004417944
-0.005581025
-0.0073468569
-0.0099132623
-0.013540602
-0.018566607
-0.025423538
-0.034657464
-0.046949286
-0.06313684
-0.084237179
-0.11146779
-0.14626519
-0.19029909
-0.24547987
-0.31395736
-0.39810837
-0.50051096
-0.62390375
-0.77112887
-0.94505849
-1.1485053
-1.3841193
-1.6542733
-1.9609421
-2.3055818
-2.6890131
-3.1113193
-3.5717622
-4.0687266
-4.5996951
-5.1612606
-5.7491762
-6.3584442
-6.9834405
-7.6180691
)
;
    }
    streamwiseOut
    {
        type            cyclic;
        value           nonuniform List<scalar> 
120
(
-0.10832668
-0.010326917
0.0099450448
0.011563366
0.012055507
0.011883547
0.011154163
0.010498313
0.010187983
0.010091804
0.0099590872
0.0096180103
0.0090252555
0.0082320982
0.0073308872
0.0064141481
0.0055539891
0.004797803
0.0041733552
0.0036975402
0.0033853875
0.0032579094
0.003348698
0.0037098418
0.004417949
0.0055810315
0.0073468655
0.0099132734
0.013540616
0.018566625
0.02542356
0.034657492
0.04694932
0.06313688
0.084237226
0.11146784
0.14626526
0.19029916
0.24547995
0.31395745
0.39810846
0.50051106
0.62390385
0.77112897
0.94505859
1.1485054
1.3841194
1.6542733
1.9609422
2.3055818
2.6890132
3.1113192
3.5717622
4.0687265
4.599695
5.1612605
5.749176
6.3584441
6.9834404
7.6180691
-0.10832669
-0.010326974
0.0099449976
0.011563322
0.012055472
0.011883533
0.011154158
0.010498311
0.010187983
0.010091805
0.0099590873
0.0096180086
0.0090252523
0.0082320943
0.0073308834
0.0064141448
0.0055539865
0.0047978009
0.0041733534
0.0036975385
0.0033853857
0.0032579071
0.0033486951
0.003709838
0.004417944
0.005581025
0.0073468569
0.0099132623
0.013540602
0.018566607
0.025423538
0.034657464
0.046949286
0.06313684
0.084237179
0.11146779
0.14626519
0.19029909
0.24547987
0.31395736
0.39810837
0.50051096
0.62390375
0.77112887
0.94505849
1.1485053
1.3841193
1.6542733
1.9609421
2.3055818
2.6890131
3.1113193
3.5717622
4.0687266
4.5996951
5.1612606
5.7491762
6.3584442
6.9834405
7.6180691
)
;
    }
    front
    {
        type            cyclic;
        value           nonuniform 0();
    }
    back
    {
        type            cyclic;
        value           nonuniform 0();
    }
    procBoundary0to1
    {
        type            processor;
        value           nonuniform List<scalar> 
240
(
4.4406936e-09
1.7165029e-09
-4.4122154e-10
-1.8902518e-09
4.7715047e-10
3.3011664e-10
-1.2863395e-10
-2.6866363e-09
1.0506446e-09
-1.1467008e-10
5.1222631e-10
-2.3295498e-09
1.315182e-09
7.9505562e-11
5.5305906e-10
-2.446964e-09
1.4096601e-09
1.6360101e-10
6.6461497e-10
-2.4049179e-09
1.456818e-09
2.8066481e-10
7.4689185e-10
-2.2850659e-09
1.4458202e-09
3.4191099e-10
6.4256043e-10
-2.0496052e-09
1.3782094e-09
3.467894e-10
5.8653606e-10
-1.7549666e-09
1.2515962e-09
3.1301162e-10
5.3880654e-10
-1.455627e-09
1.0671728e-09
2.596948e-10
4.7560673e-10
-1.1829667e-09
8.7636375e-10
2.0391927e-10
4.0164413e-10
-9.4758642e-10
6.9333593e-10
1.5604171e-10
3.2466972e-10
-7.4060224e-10
5.3386001e-10
1.1972745e-10
2.5282571e-10
-5.6595993e-10
4.0356866e-10
9.3966435e-11
1.906559e-10
-4.2222517e-10
3.0269566e-10
7.5640567e-11
1.3980529e-10
-3.0709139e-10
2.2935534e-10
6.1311047e-11
9.9777807e-11
-2.1839519e-10
1.8111007e-10
4.8072271e-11
6.8911529e-11
-1.5438298e-10
1.5566117e-10
3.381216e-11
4.5153431e-11
-1.1367592e-10
1.5105788e-10
1.7122879e-11
2.6541652e-11
-9.5072306e-11
1.6573128e-10
-2.8554802e-12
1.139706e-11
-9.7407462e-11
1.9849008e-10
-2.6584603e-11
-1.6283523e-12
-1.1951411e-10
2.4853349e-10
-5.4229604e-11
-1.3430274e-11
-1.602518e-10
3.1542774e-10
-8.5706467e-11
-2.1399927e-11
-2.185608e-10
3.9907294e-10
-1.2067419e-10
-3.7370491e-11
-2.9350416e-10
4.9958462e-10
-1.6098031e-10
-5.38835e-11
-3.8434107e-10
6.175884e-10
-2.0235909e-10
-7.3273e-11
-4.9088576e-10
7.5330234e-10
-2.445243e-10
-9.6767751e-11
-6.1261544e-10
9.0695276e-10
-2.8757617e-10
-1.2547622e-10
-7.4905534e-10
1.0784944e-09
-3.3031767e-10
-1.6036441e-10
-8.9962164e-10
1.2673965e-09
-3.7131766e-10
-2.0221752e-10
-1.0634592e-09
1.4724229e-09
-4.0899052e-10
-2.5157739e-10
-1.2392672e-09
1.6914111e-09
-4.4163552e-10
-3.086637e-10
-1.4251191e-09
1.9210653e-09
-4.6746396e-10
-3.7328333e-10
-1.6182906e-09
2.1567736e-09
-4.846966e-10
-4.4473743e-10
-1.8150997e-09
2.3924609e-09
-4.916245e-10
-5.217256e-10
-2.0107748e-09
2.6205148e-09
-4.867259e-10
-6.0226754e-10
-2.1993625e-09
2.8317849e-09
-4.6881058e-10
-6.8365229e-10
-2.3736918e-09
3.0156923e-09
-4.3718891e-10
-7.6243074e-10
-2.5254069e-09
3.1604679e-09
-3.9186159e-10
-8.3446859e-10
-2.6450894e-09
3.2535387e-09
-3.3372032e-10
-8.9507635e-10
-2.7224785e-09
3.2820732e-09
-2.6474496e-10
-9.3923063e-10
-2.7468032e-09
3.2336849e-09
-1.8817722e-10
-9.618948e-10
-2.7072265e-09
3.0972833e-09
-1.0864473e-10
-9.5843905e-10
-2.5934038e-09
2.8640414e-09
-3.2203399e-11
-9.2514706e-10
-2.3961463e-09
2.5284297e-09
3.3737099e-11
-8.5978158e-10
-2.1081714e-09
2.0892497e-09
8.0641446e-11
-7.6216419e-10
-1.72491e-09
1.5505765e-09
9.9262819e-11
-6.3470637e-10
-1.2453303e-09
9.2250845e-10
8.0266539e-11
-4.8281073e-10
-6.7272222e-10
2.2165561e-10
1.5072095e-11
-3.1506987e-10
-1.5376752e-11
-5.2903441e-10
-1.0309749e-10
-1.431127e-10
7.1290861e-10
-1.3005676e-09
-2.7798418e-10
1.8861149e-11
1.4925808e-09
-2.0592753e-09
-5.0895571e-10
1.5507496e-10
2.2983862e-09
-2.7687576e-09
-7.896366e-10
2.4958536e-10
3.0997481e-09
-3.3926893e-09
-1.1066804e-09
2.8804094e-10
3.8615756e-09
-3.898489e-09
-1.438655e-09
2.5940497e-10
4.5450331e-09
-4.2617749e-09
-1.7558219e-09
1.5699466e-10
5.1087639e-09
-4.4711025e-09
-2.0220679e-09
-2.2563387e-11
5.5108736e-09
-4.5301027e-09
-2.1996694e-09
-2.8775252e-10
5.7105436e-09
-4.4476676e-09
-2.2469517e-09
-6.748913e-10
5.6492832e-09
-3.7684177e-09
-1.8834755e-09
-1.1618514e-09
4.6735125e-09
)
;
    }
    procBoundary0to1throughfront
    {
        type            processorCyclic;
        value           nonuniform List<scalar> 
240
(
9.2213458e-09
8.221003e-10
-1.7374799e-09
-3.585094e-09
-4.144778e-09
-4.0388475e-09
-3.5832392e-09
-3.0007517e-09
-2.4231959e-09
-1.9163201e-09
-1.4903043e-09
-1.147393e-09
-8.7668836e-10
-6.6625994e-10
-5.0576206e-10
-3.8680238e-10
-3.0304037e-10
-2.4976363e-10
-2.2338827e-10
-2.2112856e-10
-2.4082332e-10
-2.8084691e-10
-3.4008382e-10
-4.1786447e-10
-5.1388774e-10
-6.2845833e-10
-7.6155861e-10
-9.1322529e-10
-1.0832631e-09
-1.2710248e-09
-1.4751856e-09
-1.6935159e-09
-1.9226695e-09
-2.1579962e-09
-2.3933925e-09
-2.6212242e-09
-2.8323248e-09
-3.0161028e-09
-3.1607795e-09
-3.2537751e-09
-3.2822522e-09
-3.2338202e-09
-3.0973856e-09
-2.8641186e-09
-2.5284878e-09
-2.0892935e-09
-1.5506095e-09
-9.2253316e-10
-2.2167407e-10
5.2902062e-10
1.3005571e-09
2.0592674e-09
2.7687515e-09
3.3926848e-09
3.8984858e-09
4.2617724e-09
4.4711004e-09
4.5301013e-09
4.4476668e-09
3.7684168e-09
2.6062572e-09
2.12355e-09
2.0243868e-09
1.3033988e-09
8.1048661e-10
1.9160672e-10
-1.0343918e-10
-2.1816505e-10
-2.4411125e-10
-2.3197324e-10
-2.0779794e-10
-1.8366457e-10
-1.6303804e-10
-1.4550704e-10
-1.2938122e-10
-1.129542e-10
-9.4989692e-11
-7.4702603e-11
-5.1650909e-11
-2.558514e-11
3.6302717e-12
3.6036055e-11
7.1577098e-11
1.1012563e-10
1.5283554e-10
1.9563387e-10
2.391703e-10
2.8345535e-10
3.2718913e-10
3.6895722e-10
4.0721581e-10
4.4030379e-10
4.6646625e-10
4.8395002e-10
4.9106642e-10
4.8630911e-10
4.6849958e-10
4.3695701e-10
3.9168878e-10
3.3359163e-10
2.6464914e-10
1.8810591e-10
1.0859164e-10
3.2163886e-11
-3.3766501e-11
-8.0663353e-11
-9.9279174e-11
-8.0278714e-11
-1.5081246e-11
1.0309063e-10
2.7797899e-10
5.0895199e-10
7.8963381e-10
1.1066783e-09
1.4386532e-09
1.7558202e-09
2.0220661e-09
2.1996677e-09
2.2469502e-09
1.8834742e-09
1.3517949e-09
-4.0908162e-10
-1.3033259e-09
-1.3932893e-09
-1.4256362e-09
-1.2382535e-09
-1.198485e-09
-1.0885629e-09
-9.5698206e-10
-8.170031e-10
-6.8090792e-10
-5.5436671e-10
-4.4237579e-10
-3.4687916e-10
-2.6787376e-10
-2.039131e-10
-1.5277563e-10
-1.1203008e-10
-7.9361998e-11
-5.2715931e-11
-3.0300035e-11
-1.0486643e-11
4.3831616e-12
2.2080293e-11
4.1890323e-11
6.4031493e-11
8.9691987e-11
1.200721e-10
1.5624071e-10
1.990715e-10
2.4917712e-10
3.0683226e-10
3.7188598e-10
4.4367151e-10
5.2091285e-10
6.016482e-10
6.8318072e-10
7.6207203e-10
8.3419603e-10
8.9486952e-10
9.3907389e-10
9.6177619e-10
9.5834946e-10
9.2507959e-10
8.5973092e-10
7.6212624e-10
6.3467798e-10
4.8278947e-10
3.1505388e-10
1.4310068e-10
-1.8870088e-11
-1.5508151e-10
-2.4959012e-10
-2.880445e-10
-2.5940761e-10
-1.5699628e-10
2.2562337e-11
2.8775151e-10
6.7489034e-10
1.161851e-09
6.3882435e-09
5.0887279e-09
4.0600769e-09
3.582268e-09
3.0428395e-09
2.617934e-09
2.2289124e-09
1.8606389e-09
1.5178571e-09
1.2110704e-09
9.4844117e-10
7.1685935e-10
5.2601748e-10
3.7377699e-10
2.5637526e-10
1.6978807e-10
1.1050768e-10
7.5754611e-11
6.3341445e-11
7.1494924e-11
9.8730527e-11
1.4379402e-10
2.0565165e-10
2.8346012e-10
3.765844e-10
4.8494908e-10
6.0810816e-10
7.4565398e-10
8.9706716e-10
1.0615474e-09
1.2378397e-09
1.4240551e-09
1.6174984e-09
1.8145105e-09
2.0103368e-09
2.1990372e-09
2.3734501e-09
2.5252274e-09
2.6449561e-09
2.7223794e-09
2.7467296e-09
2.7071717e-09
2.5933631e-09
2.396116e-09
2.1081489e-09
1.7248932e-09
1.2453178e-09
6.7271285e-10
1.5369844e-11
-7.1291376e-10
-1.4925843e-09
-2.2983887e-09
-3.0997499e-09
-3.8615768e-09
-4.5450338e-09
-5.1087642e-09
-5.5108734e-09
-5.7105431e-09
-5.6492828e-09
-4.6735123e-09
)
;
    }
}


// ************************************************************************* //
