/*--------------------------------*- C++ -*----------------------------------*\
| =========                 |                                                 |
| \\      /  F ield         | OpenFOAM: The Open Source CFD Toolbox           |
|  \\    /   O peration     | Version:  3.0.x                                 |
|   \\  /    A nd           | Web:      www.OpenFOAM.org                      |
|    \\/     M anipulation  |                                                 |
\*---------------------------------------------------------------------------*/
FoamFile
{
    version     2.0;
    format      ascii;
    class       volScalarField;
    location    "175";
    object      p;
}
// * * * * * * * * * * * * * * * * * * * * * * * * * * * * * * * * * * * * * //

dimensions      [0 2 -2 0 0 0 0];

internalField   nonuniform List<scalar> 
960
(
-2.9410001e-08
-1.2583771e-08
-1.6875607e-08
-2.1656451e-08
-3.2316952e-08
-1.4158399e-08
-7.0738288e-09
-1.669687e-08
-2.7240257e-08
-1.2269169e-08
-4.9558073e-09
-1.4770959e-08
-2.3486679e-08
-1.2208059e-08
-3.9778803e-09
-1.0327845e-08
-1.6227972e-08
-9.4274988e-09
-5.6954334e-09
-7.5752409e-09
-8.5433203e-09
-5.1754006e-09
-6.9088137e-09
-5.3320272e-09
-2.223607e-09
-9.3639949e-10
-6.3334612e-09
-2.6938738e-09
2.4429113e-09
2.7685914e-09
-4.4815862e-09
1.7334064e-10
5.6358334e-09
5.6956618e-09
-2.001781e-09
2.9810609e-09
7.5668633e-09
7.7460904e-09
6.0776998e-10
5.5102748e-09
8.5145175e-09
8.923254e-09
3.0293949e-09
7.6311203e-09
8.6971022e-09
9.2915582e-09
5.09179e-09
9.2887381e-09
8.262066e-09
8.9423674e-09
6.7303671e-09
1.0485693e-08
7.3163357e-09
7.9730079e-09
7.9460136e-09
1.1262379e-08
5.9422472e-09
6.4748001e-09
8.7774828e-09
1.1681681e-08
4.2034644e-09
4.5276339e-09
9.2834162e-09
1.1817438e-08
2.1456786e-09
2.1990256e-09
9.5305822e-09
1.1746061e-08
-1.930006e-10
-4.5395204e-10
9.5862157e-09
1.1541079e-08
-2.7663168e-09
-3.3823208e-09
9.5130868e-09
1.1269961e-08
-5.5349681e-09
-6.5437606e-09
9.3663418e-09
1.099209e-08
-8.464773e-09
-9.9012275e-09
9.1927898e-09
1.075837e-08
-1.1522673e-08
-1.3421827e-08
9.0322276e-09
1.0610835e-08
-1.4675884e-08
-1.7076111e-08
8.9122401e-09
1.0580778e-08
-1.7891951e-08
-2.0837795e-08
8.8543103e-09
1.0695758e-08
-2.1139169e-08
-2.4683137e-08
8.8730654e-09
1.0976585e-08
-2.438703e-08
-2.8590536e-08
8.9767201e-09
1.1437504e-08
-2.7606552e-08
-3.2540132e-08
9.1674649e-09
1.2086731e-08
-3.0770473e-08
-3.6513381e-08
9.4418042e-09
1.2926603e-08
-3.3853314e-08
-4.0492601e-08
9.7909431e-09
1.395367e-08
-3.6831337e-08
-4.4460477e-08
1.020125e-08
1.5158802e-08
-3.9682446e-08
-4.83995e-08
1.0654829e-08
1.6527343e-08
-4.2386084e-08
-5.2291401e-08
1.1130223e-08
1.8039354e-08
-4.492315e-08
-5.6116636e-08
1.1603233e-08
1.9669942e-08
-4.7275996e-08
-5.9853972e-08
1.2047849e-08
2.1389691e-08
-4.94285e-08
-6.3480202e-08
1.2437252e-08
2.3165195e-08
-5.1366235e-08
-6.6970015e-08
1.2744843e-08
2.4959688e-08
-5.3076725e-08
-7.029606e-08
1.2945281e-08
2.6733762e-08
-5.454977e-08
-7.3429213e-08
1.3015455e-08
2.8446193e-08
-5.5777807e-08
-7.6339051e-08
1.2935374e-08
3.0054849e-08
-5.675628e-08
-7.8994562e-08
1.2688928e-08
3.1517709e-08
-5.7483971e-08
-8.1365073e-08
1.2264478e-08
3.2793983e-08
-5.7963305e-08
-8.3421402e-08
1.1655263e-08
3.3845331e-08
-5.8200455e-08
-8.513722e-08
1.0859595e-08
3.4637219e-08
-5.8205452e-08
-8.6490641e-08
9.880831e-09
3.5140379e-08
-5.7992135e-08
-8.7466047e-08
8.7271435e-09
3.5332438e-08
-5.7578006e-08
-8.8056151e-08
7.4111052e-09
3.5199701e-08
-5.6983999e-08
-8.8264297e-08
5.9491545e-09
3.4739149e-08
-5.6234232e-08
-8.8107155e-08
4.3610331e-09
3.396074e-08
-5.5355741e-08
-8.7617394e-08
2.6693695e-09
3.2889951e-08
-5.4378284e-08
-8.6846718e-08
8.9959292e-10
3.1570762e-08
-5.3334253e-08
-8.5868644e-08
-9.1952319e-10
3.0068878e-08
-5.2258803e-08
-8.478079e-08
-2.7543583e-09
2.8475075e-08
-5.1190463e-08
-8.3706578e-08
-4.5635685e-09
2.6908662e-08
-5.0172527e-08
-8.2796518e-08
-6.2935288e-09
2.5521132e-08
-4.9254707e-08
-8.22252e-08
-7.8729957e-09
2.4495582e-08
-4.8492882e-08
-8.2168916e-08
-9.2100107e-09
2.4025689e-08
-4.7951488e-08
-8.2772462e-08
-1.0189076e-08
2.4281297e-08
-4.7747191e-08
-8.4279316e-08
-1.063164e-08
2.5531833e-08
-4.8148762e-08
-8.7496338e-08
-1.0228821e-08
2.8598424e-08
-4.9425688e-08
-9.3248591e-08
-8.6440957e-09
3.4285951e-08
-7.1023739e-09
-1.6310546e-08
-5.5492596e-09
-1.742653e-08
-1.0567775e-08
-1.4247439e-08
-1.996976e-10
-1.5646388e-08
-8.6922403e-09
-7.6536949e-09
-1.5849931e-09
-1.6679451e-08
-8.3826048e-09
-6.3759387e-09
-1.1007873e-09
-1.2788492e-08
-4.5931822e-09
-4.3055801e-09
-2.6675341e-09
-9.9097331e-09
-7.7657299e-11
-1.8681298e-09
-3.5255057e-09
-7.3177368e-09
3.8320649e-09
4.4180972e-10
-2.8926884e-09
-4.5865804e-09
6.9595041e-09
2.5726974e-09
-1.271261e-09
-1.9182244e-09
9.266378e-09
4.4069693e-09
8.1135211e-10
5.3638823e-10
1.0755155e-08
5.8143997e-09
2.9693938e-09
2.7072773e-09
1.1462054e-08
6.7015028e-09
4.9515278e-09
4.5641399e-09
1.1441809e-08
7.028123e-09
6.618881e-09
6.0992707e-09
1.0781586e-08
6.7975831e-09
7.9143542e-09
7.3208854e-09
9.5777114e-09
6.0404886e-09
8.8351576e-09
8.2502126e-09
7.9168308e-09
4.8005357e-09
9.4127673e-09
8.9196188e-09
5.8735293e-09
3.1246608e-09
9.6981988e-09
9.3703663e-09
3.5185878e-09
1.058836e-09
9.7512348e-09
9.649603e-09
9.072438e-10
-1.3513357e-09
9.6342115e-09
9.8067127e-09
-1.9182348e-09
-4.0633387e-09
9.4094053e-09
9.8903202e-09
-4.9201787e-09
-7.0374756e-09
9.1287379e-09
9.9461235e-09
-8.0575003e-09
-1.0236565e-08
8.834949e-09
1.0016629e-08
-1.1293619e-08
-1.3626028e-08
8.5626923e-09
1.0136012e-08
-1.4594476e-08
-1.7174029e-08
8.3409025e-09
1.0340651e-08
-1.7928215e-08
-2.0851601e-08
8.1904316e-09
1.0657555e-08
-2.1265026e-08
-2.463212e-08
8.1252253e-09
1.1107945e-08
-2.4577009e-08
-2.8491394e-08
8.152904e-09
1.1707935e-08
-2.7838093e-08
-3.2407323e-08
8.2752444e-09
1.2468149e-08
-3.1023954e-08
-3.6359777e-08
8.488589e-09
1.3393526e-08
-3.41119e-08
-4.0329916e-08
8.7842416e-09
1.448321e-08
-3.7080736e-08
-4.4299506e-08
9.1489138e-09
1.5730537e-08
-3.9910656e-08
-4.8250312e-08
9.5652653e-09
1.7123149e-08
-4.2583143e-08
-5.2163502e-08
1.0012559e-08
1.8643221e-08
-4.5080944e-08
-5.6019099e-08
1.0467431e-08
2.0267814e-08
-4.7388106e-08
-5.9795523e-08
1.0904767e-08
2.1969342e-08
-4.9490098e-08
-6.3469269e-08
1.1298639e-08
2.3716137e-08
-5.1374019e-08
-6.7014749e-08
1.1623287e-08
2.5473108e-08
-5.3028878e-08
-7.040433e-08
1.1854087e-08
2.7202495e-08
-5.4445932e-08
-7.3608574e-08
1.196847e-08
2.8864706e-08
-5.5619044e-08
-7.6596717e-08
1.1946757e-08
3.0419235e-08
-5.6545039e-08
-7.9337361e-08
1.1772862e-08
3.1825682e-08
-5.7224007e-08
-8.1799386e-08
1.1434841e-08
3.3044858e-08
-5.7659499e-08
-8.3953088e-08
1.0925259e-08
3.4039993e-08
-5.7858726e-08
-8.5771548e-08
1.024134e-08
3.4778052e-08
-5.7832517e-08
-8.723222e-08
9.3849227e-09
3.5231171e-08
-5.7595215e-08
-8.8318769e-08
8.3621957e-09
3.5378242e-08
-5.7164472e-08
-8.9023147e-08
7.1832607e-09
3.5206645e-08
-5.6560962e-08
-8.9347919e-08
5.8615755e-09
3.4714209e-08
-5.5808067e-08
-8.9308934e-08
4.4133871e-09
3.3911454e-08
-5.493158e-08
-8.8938e-08
2.8573072e-09
3.2824164e-08
-5.3959481e-08
-8.8285789e-08
1.2142797e-09
3.149633e-08
-5.2921869e-08
-8.7424407e-08
-4.9175512e-10
2.99934e-08
-5.1851176e-08
-8.6449329e-08
-2.2321284e-09
2.84056e-08
-5.0782943e-08
-8.548055e-08
-3.9702009e-09
2.6851321e-08
-4.9757525e-08
-8.4663106e-08
-5.6563687e-09
2.5480447e-08
-4.8822193e-08
-8.4162961e-08
-7.2224426e-09
2.4472907e-08
-4.8031408e-08
-8.414309e-08
-8.5791378e-09
2.4015767e-08
-4.7449393e-08
-8.4729164e-08
-9.6151631e-09
2.4265857e-08
-4.7192229e-08
-8.6137869e-08
-1.0162592e-08
2.5468358e-08
-4.7528451e-08
-8.9147946e-08
-9.9181095e-09
2.8418262e-08
-4.8714983e-08
-9.4498279e-08
-8.5873548e-09
3.3845501e-08
-5.5393185e-10
-7.3540788e-09
-1.0474159e-08
-1.8769466e-08
-9.3802022e-09
-7.1798275e-09
2.8790023e-11
-1.2152657e-08
-1.0676885e-08
-3.9192167e-09
2.0478886e-09
-8.4599485e-09
-1.0334401e-08
-3.5174096e-09
2.3871544e-09
-3.089837e-09
-5.8489549e-09
-1.1810235e-09
-2.1442131e-10
-2.5073421e-10
-4.693124e-10
2.169565e-09
-2.3497783e-09
1.4835909e-09
3.8903139e-09
5.3078657e-09
-2.625205e-09
3.2821935e-09
7.0134731e-09
7.890122e-09
-1.5074403e-09
5.1908184e-09
9.0198378e-09
9.7801791e-09
3.5232795e-10
7.0555806e-09
1.0096597e-08
1.0927045e-08
2.4477764e-09
8.7323678e-09
1.041947e-08
1.1352177e-08
4.4503518e-09
1.012212e-08
1.012821e-08
1.1115209e-08
6.1781123e-09
1.1176783e-08
9.328717e-09
1.029098e-08
7.5534521e-09
1.1891156e-08
8.1020703e-09
8.9554434e-09
8.5644178e-09
1.2291007e-08
6.5110577e-09
7.17819e-09
9.2382528e-09
1.2422268e-08
4.6060872e-09
5.0208172e-09
9.6246193e-09
1.2342176e-08
2.4273086e-09
2.5383253e-09
9.7844465e-09
1.2112232e-08
6.7781557e-12
-2.2444659e-10
9.7784358e-09
1.1792965e-08
-2.6245478e-09
-3.2300499e-09
9.6570447e-09
1.144071e-08
-5.4317522e-09
-6.4449517e-09
9.4729316e-09
1.1105361e-08
-8.3892008e-09
-9.8388878e-09
9.2717043e-09
1.0829613e-08
-1.1467437e-08
-1.3384105e-08
9.0891165e-09
1.0655506e-08
-1.4635717e-08
-1.7054794e-08
8.9527262e-09
1.0608364e-08
-1.786295e-08
-2.0826889e-08
8.8827949e-09
1.0712091e-08
-2.1118396e-08
-2.4678419e-08
8.8929019e-09
1.0985615e-08
-2.4372268e-08
-2.8589115e-08
8.9904113e-09
1.1441952e-08
-2.7596144e-08
-3.254039e-08
9.176831e-09
1.2088421e-08
-3.0763195e-08
-3.6514384e-08
9.4481531e-09
1.2926722e-08
-3.3848267e-08
-4.0493841e-08
9.7952045e-09
1.3952967e-08
-3.6827867e-08
-4.4461713e-08
1.0204078e-08
1.5157733e-08
-3.9680083e-08
-4.840063e-08
1.0656682e-08
1.6526174e-08
-4.2384491e-08
-5.2292388e-08
1.1131417e-08
1.8038228e-08
-4.4922089e-08
-5.6117475e-08
1.1603988e-08
1.9668929e-08
-4.7275298e-08
-5.9854673e-08
1.2048314e-08
2.1388817e-08
-4.9428047e-08
-6.348078e-08
1.2437528e-08
2.3164462e-08
-5.1365945e-08
-6.6970486e-08
1.2745e-08
2.4959084e-08
-5.3076542e-08
-7.0296442e-08
1.2945363e-08
2.6733272e-08
-5.4549656e-08
-7.3429521e-08
1.3015492e-08
2.8445798e-08
-5.5777738e-08
-7.6339298e-08
1.2935386e-08
3.0054533e-08
-5.6756239e-08
-7.8994758e-08
1.2688926e-08
3.1517458e-08
-5.7483946e-08
-8.136523e-08
1.2264469e-08
3.2793783e-08
-5.796329e-08
-8.3421527e-08
1.1655252e-08
3.3845173e-08
-5.8200445e-08
-8.5137318e-08
1.0859584e-08
3.4637093e-08
-5.8205444e-08
-8.6490719e-08
9.8808217e-09
3.514028e-08
-5.7992129e-08
-8.7466109e-08
8.727136e-09
3.5332359e-08
-5.7578001e-08
-8.80562e-08
7.4110996e-09
3.5199639e-08
-5.6983995e-08
-8.8264336e-08
5.9491506e-09
3.47391e-08
-5.6234228e-08
-8.8107186e-08
4.3610306e-09
3.3960701e-08
-5.5355737e-08
-8.7617418e-08
2.6693681e-09
3.288992e-08
-5.437828e-08
-8.6846737e-08
8.9959231e-10
3.1570737e-08
-5.3334249e-08
-8.5868659e-08
-9.1952317e-10
3.0068859e-08
-5.2258799e-08
-8.4780802e-08
-2.7543578e-09
2.847506e-08
-5.1190459e-08
-8.3706587e-08
-4.5635678e-09
2.6908649e-08
-5.0172523e-08
-8.2796526e-08
-6.2935279e-09
2.5521122e-08
-4.9254703e-08
-8.2225205e-08
-7.8729948e-09
2.4495574e-08
-4.8492879e-08
-8.2168921e-08
-9.2100101e-09
2.4025683e-08
-4.7951485e-08
-8.2772466e-08
-1.0189076e-08
2.4281291e-08
-4.7747188e-08
-8.4279319e-08
-1.0631639e-08
2.5531828e-08
-4.8148759e-08
-8.7496341e-08
-1.0228821e-08
2.8598419e-08
-4.9425685e-08
-9.3248594e-08
-8.6440958e-09
3.4285947e-08
-6.9810642e-09
-1.8717298e-08
-9.9391247e-09
-2.067141e-08
-1.1136774e-08
-1.6295056e-08
-4.8052333e-09
-1.8889055e-08
-1.0144499e-08
-9.1709386e-09
-6.0530041e-09
-1.9618484e-08
-1.0519456e-08
-7.4011782e-09
-5.1517638e-09
-1.5188789e-08
-7.0574478e-09
-4.9331153e-09
-6.2003363e-09
-1.1697428e-08
-2.5610456e-09
-2.2088462e-09
-6.5244216e-09
-8.5421827e-09
1.5487095e-09
2.9209748e-10
-5.3743192e-09
-5.3565542e-09
5.0038597e-09
2.5495928e-09
-3.2579993e-09
-2.3539414e-09
7.684258e-09
4.4608489e-09
-7.2961511e-10
3.2731512e-10
9.5316111e-09
5.9034462e-09
1.8068876e-09
2.6391778e-09
1.0534385e-08
6.7974689e-09
4.0979152e-09
4.5743572e-09
1.0755555e-08
7.1150069e-09
6.0093084e-09
6.1459382e-09
1.0290635e-08
6.8681214e-09
7.4918361e-09
7.3783289e-09
9.2389508e-09
6.0928885e-09
8.5519805e-09
8.3042002e-09
7.6947134e-09
4.836341e-09
9.2307847e-09
8.963589e-09
5.7403922e-09
3.1479093e-09
9.5880038e-09
9.4024487e-09
3.4445789e-09
1.0737458e-09
9.6905261e-09
9.6703368e-09
8.7277467e-10
-1.3425074e-09
9.6065538e-09
9.8178901e-09
-1.9267704e-09
-4.058711e-09
9.4028454e-09
9.8940279e-09
-4.9127481e-09
-7.0356503e-09
9.1340341e-09
9.9449809e-09
-8.0417573e-09
-1.0236556e-08
8.8461848e-09
1.0012163e-08
-1.1274478e-08
-1.3627183e-08
8.5762304e-09
1.0130163e-08
-1.4574936e-08
-1.7175969e-08
8.354636e-09
1.0334468e-08
-1.7909975e-08
-2.085379e-08
8.2031921e-09
1.0651529e-08
-2.1248916e-08
-2.463419e-08
8.1364544e-09
1.1102384e-08
-2.4563317e-08
-2.8493189e-08
8.1624204e-09
1.1703002e-08
-2.7826786e-08
-3.2408817e-08
8.2830865e-09
1.2463905e-08
-3.1014826e-08
-3.6361009e-08
8.4949111e-09
1.3389963e-08
-3.4104663e-08
-4.0330917e-08
8.7892491e-09
1.4480278e-08
-3.7075085e-08
-4.4300309e-08
9.1528231e-09
1.5728167e-08
-3.9906296e-08
-4.8250949e-08
9.568281e-09
1.7121261e-08
-4.2579814e-08
-5.2164003e-08
1.0014862e-08
1.8641736e-08
-4.5078423e-08
-5.6019489e-08
1.0469177e-08
2.0266659e-08
-4.7386209e-08
-5.9795825e-08
1.0906081e-08
2.1968453e-08
-4.9488678e-08
-6.3469501e-08
1.1299625e-08
2.3715457e-08
-5.1372959e-08
-6.7014927e-08
1.1624024e-08
2.5472591e-08
-5.3028088e-08
-7.0404466e-08
1.1854637e-08
2.7202105e-08
-5.4445342e-08
-7.3608677e-08
1.1968881e-08
2.8864411e-08
-5.5618603e-08
-7.6596796e-08
1.1947064e-08
3.0419013e-08
-5.6544708e-08
-7.9337422e-08
1.1773093e-08
3.1825514e-08
-5.7223758e-08
-8.1799432e-08
1.1435016e-08
3.3044731e-08
-5.765931e-08
-8.3953124e-08
1.0925391e-08
3.4039897e-08
-5.7858582e-08
-8.5771576e-08
1.0241441e-08
3.4777978e-08
-5.7832406e-08
-8.7232242e-08
9.3850009e-09
3.5231114e-08
-5.7595129e-08
-8.8318786e-08
8.3622564e-09
3.5378198e-08
-5.7164404e-08
-8.9023161e-08
7.183308e-09
3.5206611e-08
-5.6560909e-08
-8.934793e-08
5.8616128e-09
3.4714181e-08
-5.5808025e-08
-8.9308943e-08
4.4134168e-09
3.3911432e-08
-5.4931547e-08
-8.8938008e-08
2.8573309e-09
3.2824146e-08
-5.3959454e-08
-8.8285795e-08
1.2142986e-09
3.1496316e-08
-5.2921848e-08
-8.7424412e-08
-4.9174006e-10
2.9993388e-08
-5.1851158e-08
-8.6449333e-08
-2.2321164e-09
2.8405591e-08
-5.0782929e-08
-8.5480554e-08
-3.9701913e-09
2.6851313e-08
-4.9757513e-08
-8.4663109e-08
-5.6563611e-09
2.548044e-08
-4.8822183e-08
-8.4162963e-08
-7.2224367e-09
2.4472902e-08
-4.80314e-08
-8.4143092e-08
-8.5791332e-09
2.4015762e-08
-4.7449386e-08
-8.4729166e-08
-9.6151595e-09
2.4265853e-08
-4.7192223e-08
-8.6137871e-08
-1.0162589e-08
2.5468355e-08
-4.7528445e-08
-8.9147948e-08
-9.9181067e-09
2.8418259e-08
-4.8714977e-08
-9.4498281e-08
-8.5873523e-09
3.3845498e-08
)
;

boundaryField
{
    movingWall
    {
        type            zeroGradient;
    }
    CPLReceiveMD
    {
        type            zeroGradient;
    }
    streamwiseIn
    {
        type            cyclic;
    }
    streamwiseOut
    {
        type            cyclic;
    }
    front
    {
        type            cyclic;
    }
    back
    {
        type            cyclic;
    }
}


// ************************************************************************* //
