/*--------------------------------*- C++ -*----------------------------------*\
| =========                 |                                                 |
| \\      /  F ield         | OpenFOAM: The Open Source CFD Toolbox           |
|  \\    /   O peration     | Version:  3.0.x                                 |
|   \\  /    A nd           | Web:      www.OpenFOAM.org                      |
|    \\/     M anipulation  |                                                 |
\*---------------------------------------------------------------------------*/
FoamFile
{
    version     2.0;
    format      ascii;
    class       volScalarField;
    location    "175";
    object      sigmayz;
}
// * * * * * * * * * * * * * * * * * * * * * * * * * * * * * * * * * * * * * //

dimensions      [0 2 -2 0 0 0 0];

internalField   nonuniform List<scalar> 
960
(
-2.0241501e-11
1.6113803e-11
-2.0073091e-11
2.066964e-11
-9.1371157e-12
1.0537637e-11
-2.4875525e-12
9.2553698e-12
-4.3111125e-12
2.0313565e-12
2.7806301e-12
-1.1042179e-13
2.6902655e-12
-3.9036752e-12
5.6683655e-12
-5.690038e-12
7.7643609e-12
-7.3694023e-12
6.2491783e-12
-9.1614973e-12
1.0494893e-11
-8.9605988e-12
6.1226435e-12
-1.0982341e-11
1.1650457e-11
-9.2064128e-12
6.0231005e-12
-1.1372046e-11
1.1671755e-11
-8.567297e-12
5.8109433e-12
-1.0699778e-11
1.0454696e-11
-7.4663127e-12
5.117418e-12
-9.422799e-12
8.3057686e-12
-6.1951638e-12
4.1334043e-12
-7.891412e-12
6.06808e-12
-4.9278552e-12
3.1363509e-12
-6.3256667e-12
4.3891922e-12
-3.7644457e-12
2.2624281e-12
-4.8601488e-12
3.0859575e-12
-2.7668024e-12
1.5493933e-12
-3.583629e-12
2.0124915e-12
-1.9610573e-12
9.8261717e-13
-2.5360943e-12
1.1641386e-12
-1.3424054e-12
5.4657705e-13
-1.7180051e-12
4.8357365e-13
-8.8677624e-13
2.2307217e-13
-1.1058199e-12
8.1662309e-15
-5.6130243e-13
-2.2098156e-14
-6.6460664e-13
-2.3322727e-13
-3.3411407e-13
-1.8962639e-13
-3.579551e-13
-3.5307341e-13
-1.8122328e-13
-2.7717865e-13
-1.5514161e-13
-4.1807109e-13
-8.5102949e-14
-3.1214169e-13
-3.0440665e-14
-4.4131058e-13
-2.9647926e-14
-3.1344131e-13
5.0978182e-14
-4.2561619e-13
-4.8843504e-16
-2.9448537e-13
9.9892535e-14
-3.8736287e-13
1.676851e-14
-2.6416311e-13
1.1326616e-13
-3.3863637e-13
2.8699666e-14
-2.2867718e-13
1.0909459e-13
-2.8749482e-13
3.2964926e-14
-1.926673e-13
9.81857e-14
-2.3829861e-13
3.0468619e-14
-1.5918047e-13
8.4390774e-14
-1.9412941e-13
2.4943642e-14
-1.2921921e-13
7.0396004e-14
-1.5553318e-13
1.9288405e-14
-1.033476e-13
5.7214116e-14
-1.2294897e-13
1.4639761e-14
-8.1882727e-14
4.5827348e-14
-9.6224866e-14
1.0981492e-14
-6.4178073e-14
3.617015e-14
-7.4568078e-14
8.0794363e-15
-4.968187e-14
2.8220167e-14
-5.7292308e-14
6.0297794e-15
-3.8315026e-14
2.1891346e-14
-4.3868456e-14
4.5940422e-15
-2.9335987e-14
1.6902739e-14
-3.3291627e-14
3.373153e-15
-2.2353744e-14
1.296974e-14
-2.5095171e-14
2.4763562e-15
-1.7003054e-14
9.9828776e-15
-1.9022549e-14
2.1915528e-15
-1.2782719e-14
7.680455e-15
-1.4528173e-14
1.6527181e-15
-9.8874792e-15
5.9836217e-15
-1.088948e-14
1.3358412e-15
-7.422756e-15
4.6605713e-15
-8.2365515e-15
1.0571255e-15
-5.6481808e-15
3.6608795e-15
-6.265567e-15
9.7079199e-16
-4.2927199e-15
2.7793535e-15
-4.7890863e-15
7.3548928e-16
-3.2779927e-15
2.3186851e-15
-3.6663184e-15
6.7832862e-16
-2.5237097e-15
1.9244247e-15
-2.8083742e-15
6.303598e-16
-1.9558775e-15
1.5795429e-15
-2.1699014e-15
4.2286443e-16
-1.5059311e-15
1.104703e-15
-1.6741454e-15
4.363064e-16
-1.1744588e-15
9.7487357e-16
-1.3210785e-15
3.6873421e-16
-9.6269758e-16
8.0062532e-16
-1.014336e-15
3.2081256e-16
-6.9244609e-16
6.6218769e-16
-7.4148359e-16
2.4692989e-16
-6.1217953e-16
5.5421008e-16
-6.5652194e-16
1.1255035e-16
-5.5324582e-16
3.8666622e-16
-5.8652286e-16
9.8000514e-17
-3.4273568e-16
3.4282777e-16
-3.6486189e-16
2.4784646e-16
-3.0524724e-16
3.0604769e-16
-3.2041721e-16
6.2881865e-17
-1.072198e-16
2.7646774e-16
-2.8865303e-16
4.906372e-17
-2.5003124e-16
9.1773272e-17
-2.6845236e-16
2.0704104e-16
-2.3115275e-16
2.4279479e-16
-1.6380021e-16
2.000764e-16
-9.9151505e-17
2.2389343e-16
-1.0939542e-16
2.6914357e-17
-6.9389566e-17
4.1525835e-17
-7.6559836e-17
1.9919868e-17
-4.2107809e-17
2.9957374e-17
-6.1756808e-17
1.4373899e-17
-3.4671231e-17
2.2430082e-17
-2.6487292e-17
3.855239e-17
-2.2522398e-17
4.1084129e-17
-1.2211232e-16
5.9884334e-17
-7.6648616e-17
8.4723348e-17
8.2142137e-11
-2.0470366e-10
4.4029337e-11
-2.1485571e-10
6.5707563e-11
1.0648227e-10
1.0598308e-10
1.0268437e-10
-3.9108747e-10
8.4853861e-11
3.5743948e-11
8.8096705e-11
-5.1872208e-10
4.4358241e-11
-1.7942378e-11
4.9825189e-11
-5.2836302e-10
1.1525907e-11
-4.5628258e-11
1.6886854e-11
-4.5971631e-10
-6.5925241e-12
-5.5731023e-11
-1.727852e-12
-3.6156299e-10
-1.394197e-11
-5.5721057e-11
-9.7154825e-12
-2.7063279e-10
-1.6171644e-11
-5.0652138e-11
-1.2532459e-11
-1.9894907e-10
-1.6580064e-11
-4.3736787e-11
-1.3536119e-11
-1.4585121e-10
-1.6536262e-11
-3.6845787e-11
-1.4010548e-11
-1.0679652e-10
-1.6257006e-11
-3.0728926e-11
-1.418964e-11
-7.8394053e-11
-1.568478e-11
-2.5501323e-11
-1.4023637e-11
-5.7917656e-11
-1.477811e-11
-2.1047846e-11
-1.3457537e-11
-4.3040834e-11
-1.3568194e-11
-1.7270594e-11
-1.2524048e-11
-3.2070784e-11
-1.2143679e-11
-1.4098084e-11
-1.1323695e-11
-2.3967323e-11
-1.061867e-11
-1.1486588e-11
-9.9832816e-12
-1.805097e-11
-9.0991336e-12
-9.3674476e-12
-8.6148377e-12
-1.3632844e-11
-7.6555634e-12
-7.5557301e-12
-7.2931941e-12
-1.0268091e-11
-6.3368255e-12
-5.9837519e-12
-6.0734767e-12
-7.7125632e-12
-5.1741811e-12
-4.6987163e-12
-4.993592e-12
-5.7386915e-12
-4.1738146e-12
-3.6690775e-12
-4.1018125e-12
-4.2489112e-12
-3.3314567e-12
-2.8509416e-12
-3.3714462e-12
-3.1393344e-12
-2.6402374e-12
-2.2033179e-12
-2.7144717e-12
-2.3181551e-12
-2.0838419e-12
-1.6948418e-12
-2.1356065e-12
-1.7126024e-12
-1.6387897e-12
-1.3000249e-12
-1.6615584e-12
-1.2667838e-12
-1.2801193e-12
-9.950416e-13
-1.2843848e-12
-9.3843438e-13
-9.9059625e-13
-7.6024318e-13
-9.8759435e-13
-6.9595081e-13
-7.6071373e-13
-5.7971319e-13
-7.5604216e-13
-5.1699388e-13
-5.8033033e-13
-4.4143501e-13
-5.7688585e-13
-3.8458171e-13
-4.4005622e-13
-3.3560266e-13
-4.3882158e-13
-2.8639949e-13
-3.3247401e-13
-2.5474674e-13
-3.3297649e-13
-2.1337402e-13
-2.5042876e-13
-1.9319769e-13
-2.5216084e-13
-1.5893449e-13
-1.884214e-13
-1.4625211e-13
-1.9057046e-13
-1.1869152e-13
-1.416404e-13
-1.1053856e-13
-1.4399716e-13
-8.8373855e-14
-1.0626754e-13
-8.3579581e-14
-1.0838536e-13
-6.6018955e-14
-7.9745169e-14
-6.2868649e-14
-8.1565718e-14
-4.9160919e-14
-5.9835879e-14
-4.7298022e-14
-6.1509221e-14
-3.6597296e-14
-4.4894441e-14
-3.5642132e-14
-4.6258962e-14
-2.7231946e-14
-3.3641142e-14
-2.6765187e-14
-3.4713831e-14
-2.0248135e-14
-2.5279755e-14
-2.0057999e-14
-2.6248869e-14
-1.5031858e-14
-1.8966099e-14
-1.5011392e-14
-1.968249e-14
-1.1145359e-14
-1.4108316e-14
-1.1214964e-14
-1.4747822e-14
-8.2468758e-15
-1.0672949e-14
-8.3594366e-15
-1.1083027e-14
-6.0855835e-15
-8.1768479e-15
-6.2262109e-15
-8.5408378e-15
-4.4843269e-15
-6.0297609e-15
-4.6295817e-15
-6.3536538e-15
-3.3085584e-15
-4.5302703e-15
-3.5523997e-15
-4.7876174e-15
-2.3716441e-15
-3.400065e-15
-2.6097411e-15
-3.6162874e-15
-1.8852905e-15
-2.5625069e-15
-1.7751624e-15
-2.7233715e-15
-1.318026e-15
-1.7957244e-15
-1.3573813e-15
-2.0227129e-15
-9.7563497e-16
-1.3906894e-15
-1.0089275e-15
-1.6025228e-15
-6.7939696e-16
-1.2124843e-15
-7.0811579e-16
-1.2403121e-15
-5.8468581e-16
-7.46398e-16
-4.4210163e-16
-7.5643479e-16
-3.4873408e-16
-4.7814859e-16
-3.6838873e-16
-4.792146e-16
-1.2822799e-16
-3.9826689e-16
-3.1226075e-16
-4.0044208e-16
-1.727508e-16
-3.3065792e-16
-2.0350301e-16
-3.4474452e-16
-1.3280103e-16
-2.8098715e-16
-1.3782082e-16
-2.9993056e-16
-8.3421493e-17
-2.5192761e-16
-1.0377269e-16
-9.6735866e-17
-6.2099717e-17
-2.3212607e-16
-6.458523e-17
-8.1925593e-17
-7.2247767e-17
-8.5777892e-17
-4.8040731e-17
-1.3343264e-16
-4.0566671e-17
-1.2251745e-16
-6.4028446e-17
-2.1450132e-16
2.0241501e-11
-1.6113803e-11
2.0073091e-11
-2.066964e-11
9.1371157e-12
-1.0537637e-11
2.4875525e-12
-9.2553698e-12
4.3111125e-12
-2.0313565e-12
-2.7806301e-12
1.1042179e-13
-2.6902655e-12
3.9036752e-12
-5.6683655e-12
5.690038e-12
-7.7643609e-12
7.3694023e-12
-6.2491783e-12
9.1614973e-12
-1.0494893e-11
8.9605988e-12
-6.1226435e-12
1.0982341e-11
-1.1650457e-11
9.2064128e-12
-6.0231005e-12
1.1372046e-11
-1.1671755e-11
8.567297e-12
-5.8109433e-12
1.0699778e-11
-1.0454696e-11
7.4663127e-12
-5.117418e-12
9.422799e-12
-8.3057686e-12
6.1951638e-12
-4.1334043e-12
7.891412e-12
-6.06808e-12
4.9278552e-12
-3.1363509e-12
6.3256667e-12
-4.3891922e-12
3.7644457e-12
-2.2624281e-12
4.8601488e-12
-3.0859575e-12
2.7668024e-12
-1.5493933e-12
3.583629e-12
-2.0124915e-12
1.9610573e-12
-9.8261717e-13
2.5360943e-12
-1.1641386e-12
1.3424054e-12
-5.4657705e-13
1.7180051e-12
-4.8357365e-13
8.8677624e-13
-2.2307217e-13
1.1058199e-12
-8.1662309e-15
5.6130243e-13
2.2098156e-14
6.6460664e-13
2.3322727e-13
3.3411407e-13
1.8962639e-13
3.579551e-13
3.5307341e-13
1.8122328e-13
2.7717865e-13
1.5514161e-13
4.1807109e-13
8.5102949e-14
3.1214169e-13
3.0440665e-14
4.4131058e-13
2.9647926e-14
3.1344131e-13
-5.0978182e-14
4.2561619e-13
4.8843504e-16
2.9448537e-13
-9.9892535e-14
3.8736287e-13
-1.676851e-14
2.6416311e-13
-1.1326616e-13
3.3863637e-13
-2.8699666e-14
2.2867718e-13
-1.0909459e-13
2.8749482e-13
-3.2964926e-14
1.926673e-13
-9.81857e-14
2.3829861e-13
-3.0468619e-14
1.5918047e-13
-8.4390774e-14
1.9412941e-13
-2.4943642e-14
1.2921921e-13
-7.0396004e-14
1.5553318e-13
-1.9288405e-14
1.033476e-13
-5.7214116e-14
1.2294897e-13
-1.4639762e-14
8.1882727e-14
-4.5827348e-14
9.6224866e-14
-1.0981492e-14
6.4178073e-14
-3.617015e-14
7.4568078e-14
-8.0794357e-15
4.968187e-14
-2.8220167e-14
5.7292308e-14
-6.0297794e-15
3.8315026e-14
-2.1891346e-14
4.3868456e-14
-4.5940422e-15
2.9335987e-14
-1.6902739e-14
3.3291627e-14
-3.373153e-15
2.2353744e-14
-1.296974e-14
2.5095171e-14
-2.4763562e-15
1.7003053e-14
-9.9828776e-15
1.9022549e-14
-2.1915528e-15
1.2782719e-14
-7.680455e-15
1.4528173e-14
-1.6527181e-15
9.8874798e-15
-5.9836217e-15
1.088948e-14
-1.3358412e-15
7.422756e-15
-4.6605713e-15
8.2365515e-15
-1.0571256e-15
5.6481808e-15
-3.6608796e-15
6.265567e-15
-9.7079199e-16
4.2927199e-15
-2.7793535e-15
4.7890863e-15
-7.3548921e-16
3.2779927e-15
-2.3186851e-15
3.6663183e-15
-6.7832862e-16
2.5237097e-15
-1.9244248e-15
2.8083742e-15
-6.303598e-16
1.9558775e-15
-1.5795428e-15
2.1699015e-15
-4.2286443e-16
1.5059312e-15
-1.1047029e-15
1.6741454e-15
-4.363064e-16
1.1744588e-15
-9.7487357e-16
1.3210785e-15
-3.6873421e-16
9.6269758e-16
-8.0062532e-16
1.014336e-15
-3.2081256e-16
6.9244609e-16
-6.6218769e-16
7.4148359e-16
-2.4692989e-16
6.1217953e-16
-5.5421008e-16
6.5652195e-16
-1.1255035e-16
5.5324582e-16
-3.8666622e-16
5.8652287e-16
-9.8000514e-17
3.4273567e-16
-3.4282776e-16
3.648619e-16
-2.4784646e-16
3.0524725e-16
-3.0604769e-16
3.204172e-16
-6.2881859e-17
1.072198e-16
-2.7646775e-16
2.8865303e-16
-4.9063714e-17
2.5003124e-16
-9.1773272e-17
2.6845237e-16
-2.0704104e-16
2.3115275e-16
-2.4279478e-16
1.6380021e-16
-2.0007641e-16
9.9151506e-17
-2.2389343e-16
1.0939541e-16
-2.6914362e-17
6.9389562e-17
-4.152584e-17
7.6559829e-17
-1.991987e-17
4.2107806e-17
-2.9957373e-17
6.1756802e-17
-1.4373903e-17
3.4671229e-17
-2.2430081e-17
2.6487292e-17
-3.8552395e-17
2.2522395e-17
-4.1084129e-17
1.2211232e-16
-5.9884339e-17
7.6648614e-17
-8.472335e-17
-8.2142137e-11
2.0470366e-10
-4.4029337e-11
2.1485571e-10
-6.5707563e-11
-1.0648227e-10
-1.0598308e-10
-1.0268437e-10
3.9108747e-10
-8.4853861e-11
-3.5743948e-11
-8.8096705e-11
5.1872208e-10
-4.4358241e-11
1.7942378e-11
-4.9825189e-11
5.2836302e-10
-1.1525907e-11
4.5628258e-11
-1.6886854e-11
4.5971631e-10
6.5925241e-12
5.5731023e-11
1.727852e-12
3.6156299e-10
1.394197e-11
5.5721057e-11
9.7154825e-12
2.7063279e-10
1.6171644e-11
5.0652138e-11
1.2532459e-11
1.9894907e-10
1.6580064e-11
4.3736787e-11
1.3536119e-11
1.4585121e-10
1.6536262e-11
3.6845787e-11
1.4010548e-11
1.0679652e-10
1.6257006e-11
3.0728926e-11
1.418964e-11
7.8394053e-11
1.568478e-11
2.5501323e-11
1.4023637e-11
5.7917656e-11
1.477811e-11
2.1047846e-11
1.3457537e-11
4.3040834e-11
1.3568194e-11
1.7270594e-11
1.2524048e-11
3.2070784e-11
1.2143679e-11
1.4098084e-11
1.1323695e-11
2.3967323e-11
1.061867e-11
1.1486588e-11
9.9832816e-12
1.805097e-11
9.0991336e-12
9.3674476e-12
8.6148377e-12
1.3632844e-11
7.6555634e-12
7.5557301e-12
7.2931941e-12
1.0268091e-11
6.3368255e-12
5.9837519e-12
6.0734767e-12
7.7125632e-12
5.1741811e-12
4.6987163e-12
4.993592e-12
5.7386915e-12
4.1738146e-12
3.6690775e-12
4.1018125e-12
4.2489112e-12
3.3314567e-12
2.8509416e-12
3.3714462e-12
3.1393344e-12
2.6402374e-12
2.2033179e-12
2.7144717e-12
2.3181551e-12
2.0838419e-12
1.6948418e-12
2.1356065e-12
1.7126024e-12
1.6387897e-12
1.3000249e-12
1.6615584e-12
1.2667838e-12
1.2801193e-12
9.950416e-13
1.2843848e-12
9.3843438e-13
9.9059625e-13
7.6024318e-13
9.8759435e-13
6.9595081e-13
7.6071373e-13
5.7971319e-13
7.5604216e-13
5.1699388e-13
5.8033033e-13
4.4143501e-13
5.7688585e-13
3.8458171e-13
4.4005622e-13
3.3560266e-13
4.3882158e-13
2.8639949e-13
3.3247401e-13
2.5474674e-13
3.3297649e-13
2.1337402e-13
2.5042876e-13
1.9319769e-13
2.5216084e-13
1.5893448e-13
1.884214e-13
1.4625211e-13
1.9057046e-13
1.1869152e-13
1.416404e-13
1.1053856e-13
1.4399716e-13
8.8373861e-14
1.0626754e-13
8.3579581e-14
1.0838536e-13
6.6018955e-14
7.9745169e-14
6.2868649e-14
8.1565718e-14
4.9160919e-14
5.9835879e-14
4.7298022e-14
6.1509221e-14
3.6597296e-14
4.4894441e-14
3.5642132e-14
4.6258962e-14
2.7231946e-14
3.3641142e-14
2.6765187e-14
3.4713831e-14
2.0248135e-14
2.5279755e-14
2.0057999e-14
2.6248869e-14
1.5031858e-14
1.8966099e-14
1.5011392e-14
1.968249e-14
1.1145359e-14
1.4108316e-14
1.1214964e-14
1.4747822e-14
8.2468758e-15
1.0672949e-14
8.3594366e-15
1.1083027e-14
6.0855835e-15
8.1768479e-15
6.2262109e-15
8.5408378e-15
4.4843269e-15
6.0297609e-15
4.6295817e-15
6.3536538e-15
3.3085584e-15
4.5302703e-15
3.5523997e-15
4.7876174e-15
2.3716441e-15
3.400065e-15
2.6097411e-15
3.6162874e-15
1.8852905e-15
2.5625069e-15
1.7751624e-15
2.7233715e-15
1.318026e-15
1.7957244e-15
1.3573813e-15
2.0227129e-15
9.7563497e-16
1.3906894e-15
1.0089275e-15
1.6025228e-15
6.7939697e-16
1.2124843e-15
7.0811579e-16
1.2403121e-15
5.8468581e-16
7.4639801e-16
4.4210163e-16
7.5643479e-16
3.4873408e-16
4.781486e-16
3.6838873e-16
4.792146e-16
1.2822799e-16
3.9826688e-16
3.1226075e-16
4.0044208e-16
1.7275079e-16
3.3065791e-16
2.0350301e-16
3.4474451e-16
1.3280103e-16
2.8098716e-16
1.3782082e-16
2.9993056e-16
8.3421495e-17
2.5192762e-16
1.0377268e-16
9.6735867e-17
6.2099711e-17
2.3212606e-16
6.4585231e-17
8.1925593e-17
7.2247766e-17
8.5777886e-17
4.8040732e-17
1.3343264e-16
4.056667e-17
1.2251745e-16
6.4028444e-17
2.1450132e-16
)
;

boundaryField
{
    movingWall
    {
        type            calculated;
        value           nonuniform List<scalar> 
16
(
-2.1132152e-16
-1.2304112e-17
2.1132152e-16
1.2304111e-17
8.9034177e-17
-1.6539457e-16
-8.9034182e-17
1.6539457e-16
-1.179032e-16
-8.2486309e-17
1.179032e-16
8.2486306e-17
1.4003382e-16
-3.0951409e-16
-1.4003383e-16
3.0951409e-16
)
;
    }
    CPLReceiveMD
    {
        type            calculated;
        value           nonuniform List<scalar> 
16
(
-2.8946038e-11
-4.6219762e-10
2.8946038e-11
4.6219762e-10
1.6939449e-11
-5.1435191e-10
-1.6939449e-11
5.1435191e-10
-3.4669898e-11
-4.8669795e-11
3.4669898e-11
4.8669795e-11
2.4985433e-11
-5.2638511e-10
-2.4985433e-11
5.2638511e-10
)
;
    }
    streamwiseIn
    {
        type            cyclic;
    }
    streamwiseOut
    {
        type            cyclic;
    }
    front
    {
        type            cyclic;
    }
    back
    {
        type            cyclic;
    }
}


// ************************************************************************* //
