/*--------------------------------*- C++ -*----------------------------------*\
| =========                 |                                                 |
| \\      /  F ield         | OpenFOAM: The Open Source CFD Toolbox           |
|  \\    /   O peration     | Version:  3.0.x                                 |
|   \\  /    A nd           | Web:      www.OpenFOAM.org                      |
|    \\/     M anipulation  |                                                 |
\*---------------------------------------------------------------------------*/
FoamFile
{
    version     2.0;
    format      ascii;
    class       volScalarField;
    location    "175";
    object      sigmaxx;
}
// * * * * * * * * * * * * * * * * * * * * * * * * * * * * * * * * * * * * * //

dimensions      [0 2 -2 0 0 0 0];

internalField   nonuniform List<scalar> 
960
(
1.0895798e-09
3.5516915e-09
-3.7240328e-09
-3.5372742e-09
8.1714328e-09
8.0415859e-09
-8.8935184e-09
-7.9686886e-09
7.4963295e-09
6.7421117e-09
-7.4342264e-09
-6.8147149e-09
3.6879885e-09
3.4173144e-09
-3.516869e-09
-3.5760085e-09
-1.6107941e-09
-1.7108376e-09
1.709973e-09
1.5360643e-09
-4.8661329e-09
-5.0032556e-09
4.9675886e-09
4.8364292e-09
-5.2151177e-09
-5.6109499e-09
5.3106445e-09
5.4572685e-09
-4.2820739e-09
-4.7734958e-09
4.3608371e-09
4.6372062e-09
-3.1797643e-09
-3.625834e-09
3.2464447e-09
3.513142e-09
-2.6107032e-09
-2.9425818e-09
2.6722656e-09
2.8575083e-09
-2.6051702e-09
-2.8456406e-09
2.6642806e-09
2.788698e-09
-3.0191904e-09
-3.2067691e-09
3.075265e-09
3.1756702e-09
-3.4836787e-09
-3.6630461e-09
3.5366006e-09
3.6541427e-09
-3.7923109e-09
-4.0500141e-09
3.8428123e-09
4.0593021e-09
-3.8719161e-09
-4.2435752e-09
3.9208073e-09
4.2672493e-09
-3.7676388e-09
-4.225252e-09
3.815517e-09
4.2599503e-09
-3.5011107e-09
-4.0757928e-09
3.5487046e-09
4.1186712e-09
-3.1678121e-09
-3.8722204e-09
3.2157859e-09
3.9208905e-09
-2.7963151e-09
-3.6344901e-09
2.8445661e-09
3.6868988e-09
-2.477738e-09
-3.4548888e-09
2.5256669e-09
3.5092583e-09
-2.148572e-09
-3.3381202e-09
2.1956192e-09
3.3929215e-09
-1.8949884e-09
-3.2384938e-09
1.9407059e-09
3.2926082e-09
-1.6224105e-09
-3.1508474e-09
1.6663977e-09
3.2035857e-09
-1.3237486e-09
-3.1124393e-09
1.3656321e-09
3.1632209e-09
-9.9201304e-10
-3.0489873e-09
1.0314691e-09
3.09729e-09
-6.2117185e-10
-2.9752271e-09
6.5794592e-10
3.0207073e-09
-5.1274657e-11
-2.7290266e-09
8.5188145e-11
2.7714894e-09
5.4313458e-10
-2.4597386e-09
-5.1218596e-10
2.4990986e-09
9.4144309e-10
-2.1621806e-09
-9.134934e-10
2.1984409e-09
1.5870874e-09
-1.8319247e-09
-1.5621021e-09
1.8651589e-09
2.4780053e-09
-1.2433609e-09
-2.4558891e-09
1.2736973e-09
3.1666539e-09
-6.1545973e-10
-3.147261e-09
6.4306607e-10
3.869601e-09
2.7578209e-10
-3.8527443e-09
-2.507146e-10
4.801848e-09
1.2095403e-09
-4.7873084e-09
-1.1868079e-09
5.7331141e-09
2.1856834e-09
-5.7206527e-09
-2.1650841e-09
6.6537609e-09
3.2026059e-09
-6.6431308e-09
-3.1839502e-09
7.3312472e-09
4.4788599e-09
-7.3222032e-09
-4.4619768e-09
7.9762517e-09
6.0090409e-09
-7.9685588e-09
-5.9937884e-09
8.3555238e-09
7.3416066e-09
-8.3489651e-09
-7.3278768e-09
8.6801321e-09
8.6882074e-09
-8.6745182e-09
-8.6759283e-09
8.9404242e-09
1.025779e-08
-8.935597e-09
-1.0246929e-08
9.12869e-09
1.2034618e-08
-9.1245261e-09
-1.2025185e-08
9.0180159e-09
1.4665986e-08
-9.0144306e-09
-1.4658025e-08
6.6096313e-09
1.5024184e-08
-6.6065806e-09
-1.5017771e-08
8.5633975e-09
1.530527e-08
-8.5608757e-09
-1.5300508e-08
6.0098334e-09
1.5484626e-08
-6.007865e-09
-1.5481638e-08
3.3988448e-09
1.7756005e-08
-3.39747e-09
-1.7754909e-08
5.1848146e-09
1.5436969e-08
-5.1840617e-09
-1.543784e-08
2.5112536e-09
1.5161424e-08
-2.5110949e-09
-1.5164261e-08
2.0582386e-09
1.2471072e-08
-2.0585284e-09
-1.2475743e-08
-5.8868159e-10
1.1789862e-08
5.8828534e-10
-1.1796031e-08
-9.6852538e-10
8.6743703e-09
9.6864928e-10
-8.6814359e-09
-1.281108e-09
5.3528168e-09
1.2827308e-09
-5.359884e-09
-3.7320523e-09
-3.6282168e-10
3.7364998e-09
3.5688272e-10
-3.8777107e-09
-1.7537552e-09
3.8864413e-09
1.7500888e-09
-3.9414137e-09
-7.5983925e-09
3.9556442e-09
7.597635e-09
-3.9282872e-09
-1.106772e-08
3.9478519e-09
1.1069421e-08
-3.8102561e-09
-1.3993638e-08
3.8383698e-09
1.3994541e-08
-3.4552123e-09
-1.3360561e-08
3.4632324e-09
1.3364275e-08
-3.0622565e-09
-7.6379969e-09
3.0380047e-09
7.6488254e-09
3.5966592e-09
3.5933505e-09
-3.6526919e-09
-3.5102545e-09
8.2209741e-09
7.9973043e-09
-8.3165493e-09
-7.9160735e-09
6.6813536e-09
6.4567047e-09
-6.7920794e-09
-6.4669549e-09
3.0999613e-09
3.4007686e-09
-3.1655342e-09
-3.4667741e-09
-2.2675505e-09
-1.8782686e-09
2.2013903e-09
1.817137e-09
-5.2651541e-09
-4.9233224e-09
5.1901492e-09
4.8576464e-09
-5.4943534e-09
-5.5029066e-09
5.4137244e-09
5.4301292e-09
-4.4480739e-09
-4.637077e-09
4.3683506e-09
4.5599809e-09
-3.2853842e-09
-3.5362403e-09
3.213006e-09
3.4603834e-09
-2.7060096e-09
-2.8772069e-09
2.6453523e-09
2.8076497e-09
-2.7122173e-09
-2.7994683e-09
2.6655816e-09
2.739668e-09
-3.0677997e-09
-3.1510251e-09
3.0362943e-09
3.1028436e-09
-3.516481e-09
-3.6584213e-09
3.4999373e-09
3.6224769e-09
-3.8325984e-09
-4.0479252e-09
3.8296046e-09
4.023996e-09
-3.8997526e-09
-4.2193227e-09
3.9085008e-09
4.206674e-09
-3.7744241e-09
-4.2219959e-09
3.7930757e-09
4.2195731e-09
-3.4964613e-09
-4.0731536e-09
3.5230471e-09
4.0796889e-09
-3.1523021e-09
-3.843567e-09
3.1849069e-09
3.8576721e-09
-2.8002441e-09
-3.6265404e-09
2.8373431e-09
3.6468068e-09
-2.4572274e-09
-3.4677574e-09
2.4976362e-09
3.492814e-09
-2.1484739e-09
-3.3275351e-09
2.1910131e-09
3.3561545e-09
-1.8714027e-09
-3.2267613e-09
1.9149133e-09
3.2577884e-09
-1.5978605e-09
-3.1602592e-09
1.6413824e-09
3.1924611e-09
-1.2984305e-09
-3.1208795e-09
1.3412159e-09
3.153211e-09
-9.6602577e-10
-3.0343163e-09
1.0075148e-09
3.0660512e-09
-6.1675124e-10
-2.9818652e-09
6.5653734e-10
3.0124463e-09
-2.68164e-10
-2.7348146e-09
3.0596847e-10
2.7638149e-09
3.2682943e-10
-2.6865994e-09
-2.9117865e-10
2.7137258e-09
9.4760933e-10
-2.166276e-09
-9.141984e-10
2.1913596e-09
1.5937701e-09
-1.8351392e-09
-1.5626165e-09
1.8581133e-09
2.4851378e-09
-1.2456592e-09
-2.4562047e-09
1.2665404e-09
3.3960578e-09
-3.948892e-10
-3.3692676e-09
4.1376246e-10
4.099247e-09
2.7544415e-10
-4.0744959e-09
-2.5843982e-10
4.8096793e-09
1.2102525e-09
-4.7868485e-09
-1.1949419e-09
5.962788e-09
2.1874892e-09
-5.9417529e-09
-2.1736745e-09
6.6612663e-09
3.2055443e-09
-6.6419071e-09
-3.193017e-09
7.3382912e-09
4.4829569e-09
-7.3205054e-09
-4.4715127e-09
7.98262e-09
6.0143059e-09
-7.9663267e-09
-6.003754e-09
8.5829115e-09
7.3480278e-09
-8.5680561e-09
-7.3382007e-09
8.9064172e-09
8.9176572e-09
-8.8929778e-09
-8.9084189e-09
8.9435007e-09
1.0266371e-08
-8.931489e-09
-1.0257622e-08
9.1303009e-09
1.204413e-08
-9.1197637e-09
-1.2035816e-08
9.0180332e-09
1.2457155e-08
-9.0090475e-09
-1.2449262e-08
6.6079818e-09
1.5035045e-08
-6.6006508e-09
-1.502761e-08
8.560075e-09
1.5316448e-08
-8.5545196e-09
-1.5309552e-08
6.0049125e-09
1.5495819e-08
-6.0012561e-09
-1.5489568e-08
3.3924922e-09
1.7766859e-08
-3.3908378e-09
-1.7761376e-08
5.1772976e-09
1.5447087e-08
-5.1776925e-09
-1.5442493e-08
2.5029448e-09
1.5170377e-08
-2.5053288e-09
-1.5166729e-08
-1.6950851e-10
1.2478416e-08
1.6537412e-10
-1.2475638e-08
-5.9706735e-10
1.179516e-08
5.9168059e-10
-1.1792974e-08
-9.7606228e-10
6.458108e-09
9.7025716e-10
-6.4559628e-09
-3.5063182e-09
5.3529318e-09
3.5013e-09
-5.3499751e-09
-3.7361925e-09
-3.6557943e-10
3.733451e-09
3.7042294e-10
-3.8795977e-09
-1.7592592e-09
3.8805777e-09
1.767001e-09
-6.1601208e-09
-7.6059314e-09
6.165634e-09
7.6169559e-09
-3.9259411e-09
-1.3294489e-08
3.935301e-09
1.330795e-08
-3.8061363e-09
-1.1773633e-08
3.8174023e-09
1.1786359e-08
-3.4539341e-09
-1.3373162e-08
3.4534379e-09
1.3374858e-08
-3.0662585e-09
-7.6798531e-09
3.0538679e-09
7.6673635e-09
3.6926159e-09
3.5447342e-09
-3.7329622e-09
-3.5523817e-09
8.6263189e-09
7.9738842e-09
-8.5974454e-09
-8.0488279e-09
6.9355186e-09
6.70892e-09
-6.8680282e-09
-6.8597683e-09
3.5302427e-09
3.2023457e-09
-3.4076574e-09
-3.3523949e-09
-1.8962951e-09
-1.6750649e-09
2.0158685e-09
1.5698508e-09
-4.9378266e-09
-4.9631614e-09
5.0284729e-09
4.875497e-09
-5.42388e-09
-5.6183378e-09
5.4857193e-09
5.5379175e-09
-4.4334055e-09
-4.7416019e-09
4.4767227e-09
4.6684946e-09
-3.2945203e-09
-3.5996667e-09
3.3297152e-09
3.5388536e-09
-2.6935285e-09
-2.9220011e-09
2.7267062e-09
2.8777526e-09
-2.6810243e-09
-2.8522399e-09
2.7146357e-09
2.8263166e-09
-3.0439418e-09
-3.195253e-09
3.0786844e-09
3.1871645e-09
-3.5023986e-09
-3.6546978e-09
3.5384432e-09
3.6625541e-09
-3.8284826e-09
-4.0440706e-09
3.8659544e-09
4.0653644e-09
-3.9044098e-09
-4.2394257e-09
3.9435237e-09
4.2715627e-09
-3.779374e-09
-4.2224142e-09
3.8203222e-09
4.2629841e-09
-3.5106439e-09
-4.0739096e-09
3.5532978e-09
4.1207649e-09
-3.171559e-09
-3.8710305e-09
3.2155999e-09
3.9222945e-09
-2.7991501e-09
-3.6337823e-09
2.8442013e-09
3.6878219e-09
-2.4799382e-09
-3.4545047e-09
2.5253053e-09
3.5099071e-09
-2.1502887e-09
-3.3379491e-09
2.1952966e-09
3.3934199e-09
-1.8962684e-09
-3.2384473e-09
1.940423e-09
3.2928838e-09
-1.6233422e-09
-3.1508609e-09
1.6661536e-09
3.2036092e-09
-1.3244189e-09
-3.1124833e-09
1.3654296e-09
3.1631183e-09
-9.924922e-10
-3.049057e-09
1.0313065e-09
3.0971609e-09
-6.215133e-10
-2.9753202e-09
6.5781671e-10
3.0205817e-09
-5.1519386e-11
-2.7291296e-09
8.5085471e-11
2.7713761e-09
5.4295836e-10
-2.4598374e-09
-5.1226749e-10
2.4990017e-09
9.413163e-10
-2.1622689e-09
-9.1355773e-10
2.1983605e-09
1.5869953e-09
-1.831999e-09
-1.5621531e-09
1.8650933e-09
2.4779377e-09
-1.2434207e-09
-2.455929e-09
1.2736449e-09
3.1666035e-09
-6.1550658e-10
-3.1472924e-09
6.4302461e-10
3.8695641e-09
2.7574634e-10
-3.8527691e-09
-2.5074663e-10
4.8018205e-09
1.2095127e-09
-4.7873275e-09
-1.186833e-09
5.7330935e-09
2.1856623e-09
-5.7206679e-09
-2.165104e-09
6.6537456e-09
3.2025902e-09
-6.6431431e-09
-3.1839646e-09
7.3312353e-09
4.4788482e-09
-7.3222121e-09
-4.4619876e-09
7.9762428e-09
6.009032e-09
-7.9685656e-09
-5.993797e-09
8.3555171e-09
7.3416e-09
-8.3489706e-09
-7.3278828e-09
8.680127e-09
8.6882026e-09
-8.6745225e-09
-8.6759328e-09
8.9404203e-09
1.0257786e-08
-8.9356003e-09
-1.0246933e-08
9.1286871e-09
1.2034615e-08
-9.1245287e-09
-1.2025187e-08
9.0180136e-09
1.4665985e-08
-9.0144326e-09
-1.4658026e-08
6.6096296e-09
1.5024183e-08
-6.6065821e-09
-1.5017772e-08
8.5633962e-09
1.5305268e-08
-8.5608765e-09
-1.5300509e-08
6.0098323e-09
1.5484626e-08
-6.0078658e-09
-1.5481639e-08
3.3988443e-09
1.7756004e-08
-3.3974713e-09
-1.7754909e-08
5.1848142e-09
1.5436968e-08
-5.1840625e-09
-1.543784e-08
2.511253e-09
1.5161424e-08
-2.5110951e-09
-1.5164261e-08
2.0582382e-09
1.2471073e-08
-2.0585288e-09
-1.2475743e-08
-5.8868168e-10
1.1789862e-08
5.8828487e-10
-1.1796031e-08
-9.6852556e-10
8.6743694e-09
9.6864912e-10
-8.6814366e-09
-1.2811087e-09
5.3528167e-09
1.2827311e-09
-5.359884e-09
-3.7320524e-09
-3.6282149e-10
3.7364998e-09
3.5688302e-10
-3.8777105e-09
-1.753755e-09
3.8864412e-09
1.750089e-09
-3.9414139e-09
-7.5983924e-09
3.9556441e-09
7.5976348e-09
-3.9282873e-09
-1.106772e-08
3.9478518e-09
1.1069421e-08
-3.8102562e-09
-1.3993638e-08
3.8383698e-09
1.3994541e-08
-3.4552123e-09
-1.3360562e-08
3.4632324e-09
1.3364275e-08
-3.0622565e-09
-7.6379969e-09
3.0380048e-09
7.6488254e-09
3.6015682e-09
3.5870044e-09
-3.6503769e-09
-3.528367e-09
8.2325456e-09
7.9847547e-09
-8.3007546e-09
-7.9335344e-09
6.7000458e-09
6.4396133e-09
-6.7750872e-09
-6.4839513e-09
3.1227867e-09
3.3841718e-09
-3.1548686e-09
-3.4833092e-09
-2.2492545e-09
-1.8919185e-09
2.2066772e-09
1.8022413e-09
-5.2520544e-09
-4.9332619e-09
5.1937859e-09
4.8459788e-09
-5.4856299e-09
-5.5314404e-09
5.4166452e-09
5.4445093e-09
-4.4438574e-09
-4.640475e-09
4.3697766e-09
4.5556379e-09
-3.3299904e-09
-3.5375336e-09
3.2570548e-09
3.4586604e-09
-2.7090407e-09
-2.8771266e-09
2.6439513e-09
2.8077161e-09
-2.7157527e-09
-2.798579e-09
2.6637772e-09
2.7408412e-09
-3.0709432e-09
-3.1497565e-09
3.0344419e-09
3.1045754e-09
-3.5194463e-09
-3.6570827e-09
3.4981819e-09
3.6243587e-09
-3.8353894e-09
-4.0467022e-09
3.8280052e-09
4.0257736e-09
-3.9022892e-09
-4.2182976e-09
3.9070948e-09
4.2082198e-09
-3.7743875e-09
-4.2211815e-09
3.7896379e-09
4.2208458e-09
-3.498095e-09
-4.0725271e-09
3.5220172e-09
4.0806971e-09
-3.1534413e-09
-3.8430988e-09
3.1841056e-09
3.8584443e-09
-2.8010982e-09
-3.6262057e-09
2.8367583e-09
3.6473769e-09
-2.4578871e-09
-3.4675315e-09
2.4972166e-09
3.4932364e-09
-2.1489526e-09
-3.3273893e-09
2.1907188e-09
3.3564742e-09
-1.8717258e-09
-3.2266638e-09
1.9147126e-09
3.2580035e-09
-1.5980704e-09
-3.160186e-09
1.6412511e-09
3.1925873e-09
-1.298562e-09
-3.1208271e-09
1.3411341e-09
3.1532865e-09
-9.6610377e-10
-3.0342883e-09
1.0074657e-09
3.0660964e-09
-6.1679444e-10
-2.9818559e-09
6.5650978e-10
3.0124722e-09
-2.6818517e-10
-2.734814e-09
3.0595529e-10
2.7638288e-09
3.2682242e-10
-2.6866011e-09
-2.911839e-10
2.7137325e-09
9.4760961e-10
-2.1662778e-09
-9.1419926e-10
2.1913626e-09
1.593774e-09
-1.835141e-09
-1.562614e-09
1.8581139e-09
2.4851436e-09
-1.2456604e-09
-2.4562012e-09
1.2665401e-09
3.3960635e-09
-3.9488932e-10
-3.3692643e-09
4.1376196e-10
4.0992522e-09
2.7544404e-10
-4.0744927e-09
-2.5844042e-10
4.8096843e-09
1.2102522e-09
-4.7868459e-09
-1.1949423e-09
5.9627916e-09
2.1874901e-09
-5.9417506e-09
-2.1736746e-09
6.6612683e-09
3.2055453e-09
-6.6419058e-09
-3.1930169e-09
7.338293e-09
4.4829572e-09
-7.3205045e-09
-4.4715123e-09
7.9826217e-09
6.0143063e-09
-7.9663256e-09
-6.0037536e-09
8.5829124e-09
7.3480285e-09
-8.5680556e-09
-7.3382006e-09
8.9064177e-09
8.9176577e-09
-8.8929774e-09
-8.9084184e-09
8.943501e-09
1.0266371e-08
-8.9314888e-09
-1.0257622e-08
9.1303012e-09
1.2044131e-08
-9.1197636e-09
-1.2035816e-08
9.0180333e-09
1.2457155e-08
-9.0090475e-09
-1.2449263e-08
6.6079819e-09
1.5035045e-08
-6.6006508e-09
-1.502761e-08
8.560075e-09
1.5316449e-08
-8.5545198e-09
-1.5309551e-08
6.0049124e-09
1.5495819e-08
-6.001256e-09
-1.5489568e-08
3.3924924e-09
1.7766859e-08
-3.3908378e-09
-1.7761376e-08
5.1772975e-09
1.5447086e-08
-5.1776929e-09
-1.5442493e-08
2.5029443e-09
1.5170377e-08
-2.5053286e-09
-1.5166729e-08
-1.6950843e-10
1.2478417e-08
1.6537434e-10
-1.2475637e-08
-5.9706716e-10
1.179516e-08
5.9168087e-10
-1.1792974e-08
-9.760625e-10
6.4581076e-09
9.7025699e-10
-6.4559631e-09
-3.5063184e-09
5.3529324e-09
3.5012994e-09
-5.349975e-09
-3.7361924e-09
-3.655789e-10
3.7334512e-09
3.7042348e-10
-3.8795975e-09
-1.7592596e-09
3.880578e-09
1.7670007e-09
-6.1601208e-09
-7.6059318e-09
6.165634e-09
7.6169555e-09
-3.9259411e-09
-1.3294489e-08
3.935301e-09
1.330795e-08
-3.8061363e-09
-1.1773633e-08
3.8174023e-09
1.1786359e-08
-3.4539341e-09
-1.3373162e-08
3.4534378e-09
1.3374858e-08
-3.0662586e-09
-7.6798531e-09
3.0538679e-09
7.6673635e-09
)
;

boundaryField
{
    movingWall
    {
        type            calculated;
        value           nonuniform List<scalar> 
16
(
-2.9319542e-09
-2.9374253e-09
-2.9319542e-09
-2.9374253e-09
-7.1356994e-09
-7.1854112e-09
-7.1356995e-09
-7.1854112e-09
2.9017394e-09
2.9253091e-09
2.9017395e-09
2.9253092e-09
7.1490777e-09
7.1682088e-09
7.1490778e-09
7.1682088e-09
)
;
    }
    CPLReceiveMD
    {
        type            calculated;
        value           nonuniform List<scalar> 
16
(
-9.3280318e-10
3.0641886e-09
3.1850733e-09
3.0657791e-09
2.9978645e-09
3.1252072e-09
3.0863178e-09
3.1176979e-09
-3.1477749e-09
-3.138538e-09
-3.1641985e-09
-3.1450399e-09
-3.1347646e-09
-3.0663322e-09
-3.0558495e-09
-3.088946e-09
)
;
    }
    streamwiseIn
    {
        type            cyclic;
    }
    streamwiseOut
    {
        type            cyclic;
    }
    front
    {
        type            cyclic;
    }
    back
    {
        type            cyclic;
    }
}


// ************************************************************************* //
