/*--------------------------------*- C++ -*----------------------------------*\
| =========                 |                                                 |
| \\      /  F ield         | OpenFOAM: The Open Source CFD Toolbox           |
|  \\    /   O peration     | Version:  3.0.x                                 |
|   \\  /    A nd           | Web:      www.OpenFOAM.org                      |
|    \\/     M anipulation  |                                                 |
\*---------------------------------------------------------------------------*/
FoamFile
{
    version     2.0;
    format      ascii;
    class       volScalarField;
    location    "175";
    object      sigmazz;
}
// * * * * * * * * * * * * * * * * * * * * * * * * * * * * * * * * * * * * * //

dimensions      [0 2 -2 0 0 0 0];

internalField   nonuniform List<scalar> 
960
(
-2.4236624e-09
1.6407475e-10
-2.4137586e-10
-4.0388592e-10
-9.8746371e-10
-6.7740713e-10
8.1571733e-10
6.137269e-10
4.9141073e-10
-2.5346664e-10
3.1664053e-10
1.6154222e-10
3.1931698e-10
-5.4903484e-10
5.8287908e-10
4.3853444e-10
2.4190509e-10
-3.384584e-10
4.7837168e-10
2.3847314e-10
1.9384118e-10
-3.00938e-10
3.948732e-10
2.1244458e-10
1.0546256e-10
-2.7930084e-10
3.5771814e-10
1.9870471e-10
9.1936784e-11
-2.1133179e-10
2.6034391e-10
1.4129444e-10
7.0263214e-11
-1.6558398e-10
2.0011803e-10
1.1307735e-10
6.4808373e-11
-1.1777588e-10
1.4954122e-10
8.7607866e-11
4.0562383e-11
-9.0203642e-11
1.3425175e-10
8.3167589e-11
3.8000315e-11
-5.4666068e-11
1.0650677e-10
6.8400999e-11
2.4102461e-11
-4.7727169e-11
9.6851657e-11
7.843866e-11
3.6749365e-12
-3.8025276e-11
9.9341457e-11
8.1683433e-11
-1.7844676e-11
-3.452194e-11
1.0731757e-10
8.7487659e-11
-2.6454786e-11
-4.528642e-11
1.0568549e-10
1.0454158e-10
-4.4357098e-11
-5.780834e-11
1.1610494e-10
1.2097346e-10
-6.0934985e-11
-6.9195814e-11
1.2739489e-10
1.3440854e-10
-9.1685375e-11
-9.9398548e-11
1.5402426e-10
1.6514974e-10
-1.0811399e-10
-1.2088609e-10
1.6672439e-10
1.8591645e-10
-1.4671037e-10
-1.3838805e-10
2.0182936e-10
2.016392e-10
-1.6062026e-10
-1.7281758e-10
2.1242394e-10
2.3356431e-10
-1.885146e-10
-2.1904508e-10
2.37084e-10
2.7694168e-10
-2.2338135e-10
-2.4778809e-10
2.6871191e-10
3.0255587e-10
-2.5829005e-10
-2.8465316e-10
3.0033821e-10
3.3601956e-10
-2.8725327e-10
-3.1111273e-10
3.2597588e-10
3.5893531e-10
-3.8336118e-10
-3.9805996e-10
4.1873901e-10
4.42306e-10
-4.5488774e-10
-4.6185565e-10
4.8693651e-10
5.0256871e-10
-3.8959571e-10
-4.9733092e-10
4.1837165e-10
5.3461486e-10
-4.0979786e-10
-5.0006865e-10
4.3540349e-10
5.3407581e-10
-5.175663e-10
-5.7733604e-10
5.4014797e-10
6.0825519e-10
-4.9471509e-10
-6.1524269e-10
5.1445694e-10
6.432879e-10
-4.5754982e-10
-7.2265898e-10
4.7466798e-10
7.4805676e-10
-5.2394103e-10
-7.8754551e-10
5.3867631e-10
8.1052636e-10
-5.9130443e-10
-8.1003701e-10
6.0391216e-10
8.3082312e-10
-6.6928074e-10
-7.9174147e-10
6.8002011e-10
8.1053766e-10
-6.5754468e-10
-8.4697676e-10
6.6667013e-10
8.6396548e-10
-6.7828674e-10
-9.8114886e-10
6.8604039e-10
9.9648076e-10
-6.3189053e-10
-9.80065e-10
6.3849442e-10
9.9385451e-10
-6.4015614e-10
-9.6494358e-10
6.4580358e-10
9.7726749e-10
-7.1273641e-10
-1.059707e-09
7.1758843e-10
1.0706012e-09
-8.5734186e-10
-1.2800906e-09
8.6152415e-10
1.2895495e-09
-9.6801838e-10
-1.977406e-09
9.7161724e-10
1.9853865e-09
-4.7724443e-11
-1.6192103e-09
5.0785102e-11
1.6256377e-09
-1.4226398e-09
-1.3381264e-09
1.425169e-09
1.3428993e-09
-6.4752458e-10
-1.1587711e-09
6.4949833e-10
1.1617675e-09
7.0166366e-11
-2.2160741e-09
-6.8787697e-11
2.2171763e-09
-1.4725446e-09
-1.2064307e-09
1.4733004e-09
1.2055642e-09
-8.1742564e-10
-1.4819754e-09
8.1758646e-10
1.479142e-09
-1.2704409e-09
-8.4364769e-10
1.2701527e-09
8.3897927e-10
-5.8868106e-10
-1.5248583e-09
5.8828597e-10
1.5186915e-09
-9.6852499e-10
-1.31167e-09
9.6864971e-10
1.3046059e-09
-1.2811077e-09
-1.3045433e-09
1.2827312e-09
1.2974772e-09
-4.033718e-10
-3.6282136e-10
4.0781977e-10
3.5688317e-10
-5.4903028e-10
-1.7537549e-09
5.5776122e-10
1.7500891e-09
-6.1273336e-10
-9.4103176e-10
6.2696402e-10
9.402747e-10
-5.9960685e-10
-1.0816786e-09
6.1917167e-10
1.0833807e-09
-4.8157578e-10
-6.7891677e-10
5.0968962e-10
6.7981993e-10
-1.26532e-10
-4.5840091e-11
1.3455216e-10
4.9554151e-11
2.6642381e-10
-9.8063627e-10
-2.9067554e-10
9.9146486e-10
2.4190934e-10
3.2686601e-10
-2.8227747e-10
-2.5487543e-10
-7.5358455e-10
-6.6956564e-10
6.8151692e-10
7.2266253e-10
-2.9210423e-10
-2.1652348e-10
2.0899598e-10
1.7088414e-10
-5.4353279e-10
-6.1009046e-10
5.0600287e-10
5.0756325e-10
-2.5307743e-10
-2.2921124e-10
2.129264e-10
1.3402845e-10
-2.5696408e-10
-2.7642566e-10
2.0450712e-10
1.8109186e-10
-2.5584762e-10
-2.545114e-10
1.9367344e-10
1.5722523e-10
-2.1114414e-10
-2.1856916e-10
1.4543403e-10
1.2205978e-10
-1.8305281e-10
-1.8086917e-10
1.2045223e-10
9.0197274e-11
-1.3868657e-10
-1.5256216e-10
8.421627e-11
7.209898e-11
-1.1339081e-10
-1.4000466e-10
7.0243129e-11
7.2475291e-11
-1.0411151e-10
-1.2432562e-10
7.4125343e-11
7.0890959e-11
-8.7710241e-11
-9.8325791e-11
7.1278283e-11
5.8981743e-11
-7.1590596e-11
-8.7807131e-11
6.7764255e-11
6.1812964e-11
-7.2558597e-11
-9.2366741e-11
7.9901022e-11
7.8577747e-11
-7.0591899e-11
-8.8111112e-11
8.7545935e-11
8.5163061e-11
-7.8938411e-11
-9.5541275e-11
1.0376256e-10
1.0194049e-10
-9.0908367e-11
-1.1549768e-10
1.2182433e-10
1.2969657e-10
-1.0492624e-10
-1.3141741e-10
1.4047865e-10
1.5189839e-10
-1.2796445e-10
-1.3903742e-10
1.6700396e-10
1.6435917e-10
-1.5196731e-10
-1.652365e-10
1.933297e-10
1.9413018e-10
-1.7436604e-10
-1.976071e-10
2.1688889e-10
2.288898e-10
-2.0030143e-10
-2.309675e-10
2.4301027e-10
2.6339461e-10
-2.3364757e-10
-2.5816755e-10
2.7577411e-10
2.9068961e-10
-2.6731871e-10
-3.0475973e-10
3.0828096e-10
3.3665069e-10
-2.8413295e-10
-3.1889046e-10
3.2350248e-10
3.4959636e-10
-2.6835956e-10
-4.0471498e-10
3.0583773e-10
4.3381364e-10
-3.390585e-10
-3.5650524e-10
3.7445574e-10
3.837085e-10
-3.8397993e-10
-5.0192212e-10
4.1719515e-10
5.2706559e-10
-4.0352795e-10
-5.0365657e-10
4.3453131e-10
5.2667712e-10
-5.1074305e-10
-5.7991499e-10
5.395613e-10
6.0083223e-10
-5.9841077e-10
-7.2775081e-10
6.2511339e-10
7.466522e-10
-5.6094512e-10
-7.2315482e-10
5.8562956e-10
7.401812e-10
-5.1623936e-10
-7.8695153e-10
5.3901945e-10
8.0227952e-10
-6.9459554e-10
-8.0831972e-10
7.1559201e-10
8.221482e-10
-6.6184788e-10
-7.8886928e-10
6.8117765e-10
8.0140752e-10
-6.5055487e-10
-8.4292917e-10
6.6831822e-10
8.5438232e-10
-6.7195896e-10
-9.7592075e-10
6.8823507e-10
9.8647979e-10
-7.3740119e-10
-9.7367125e-10
7.5224329e-10
9.8350417e-10
-7.4676172e-10
-1.0683823e-09
7.6019089e-10
1.0776253e-09
-7.0967688e-10
-1.0511413e-09
7.2168061e-10
1.0598932e-09
-8.5574359e-10
-1.2705897e-09
8.6627471e-10
1.278907e-09
-9.6801055e-10
-8.5756542e-10
9.7699139e-10
8.6546051e-10
-4.9380972e-11
-1.6083556e-09
5.6708233e-11
1.6157929e-09
-1.4259676e-09
-1.3269525e-09
1.4315201e-09
1.3338508e-09
-6.5244954e-10
-1.1475818e-09
6.5610361e-10
1.1538342e-09
6.3810859e-11
-2.2052226e-09
-6.2158197e-11
2.2107068e-09
-1.4800639e-09
-1.1963146e-09
1.4796675e-09
1.2009095e-09
-8.2573623e-10
-1.473024e-09
8.2335109e-10
1.4766725e-09
-1.6950905e-10
-8.3630498e-10
1.6537377e-10
8.3908387e-10
-5.9706776e-10
-1.5195608e-09
5.9168031e-10
1.5217478e-09
-9.7606257e-10
-1.9925248e-10
9.7025691e-10
2.0139802e-10
-1.7763819e-10
-1.3044286e-09
1.7261945e-10
1.3073857e-09
-4.0751236e-10
-3.6557929e-10
4.0477051e-10
3.7042309e-10
-5.5091752e-10
-1.7592592e-09
5.5189735e-10
1.7670012e-09
4.9723967e-10
-9.4857072e-10
-4.9172669e-10
9.5959533e-10
-5.9726084e-10
2.0232452e-11
6.0662064e-10
-6.7710893e-12
-4.7745611e-10
-1.7875921e-09
4.8872198e-10
1.8003183e-09
-1.2525391e-10
-5.8440933e-11
1.2475752e-10
6.0137065e-11
2.6242168e-10
-1.0224925e-09
-2.7481238e-10
1.0100029e-09
2.1562946e-10
4.0813754e-10
-2.2539059e-10
-1.6155655e-10
-1.1882622e-09
-6.1626035e-10
6.6679659e-10
6.7789412e-10
-7.0575594e-10
-2.7595898e-10
2.7298179e-11
1.4443187e-10
-1.0899185e-09
-4.8726973e-10
4.8142721e-10
2.8902691e-10
-7.5318196e-10
-3.8449983e-10
2.5165753e-10
2.0449775e-10
-6.774958e-10
-3.451741e-10
2.8088345e-10
1.7917675e-10
-4.9212488e-10
-2.982099e-10
1.8631038e-10
1.4470429e-10
-3.525682e-10
-2.4975557e-10
1.2236791e-10
1.1039599e-10
-2.5334209e-10
-2.0283532e-10
8.4836192e-11
8.1836783e-11
-1.7629886e-10
-1.5462421e-10
5.6689309e-11
5.5470173e-11
-1.3401557e-10
-1.1535438e-10
5.1923281e-11
3.952448e-11
-1.0950798e-10
-8.9437104e-11
5.5818185e-11
3.6514723e-11
-8.6524731e-11
-8.0067227e-11
5.4537106e-11
4.8308721e-11
-6.836411e-11
-6.7226728e-11
5.3321002e-11
5.415036e-11
-6.9229741e-11
-6.0204676e-11
6.7761884e-11
6.304998e-11
-7.0971476e-11
-6.7364313e-11
8.056724e-11
8.3377361e-11
-7.702927e-11
-7.6431841e-11
9.5529237e-11
1.0300048e-10
-8.7090791e-11
-8.4664024e-11
1.126456e-10
1.1938533e-10
-1.1131775e-10
-1.1207165e-10
1.4228111e-10
1.5276872e-10
-1.2283614e-10
-1.3114681e-10
1.5752182e-10
1.7588832e-10
-1.577339e-10
-1.4661511e-10
1.9467014e-10
1.9363605e-10
-1.6880905e-10
-1.793518e-10
2.0687745e-10
2.271559e-10
-1.9457305e-10
-2.2418586e-10
2.3280222e-10
2.7177585e-10
-2.2785712e-10
-2.5180441e-10
2.6542073e-10
2.9845326e-10
-2.6159586e-10
-2.8778191e-10
2.9781798e-10
3.3282207e-10
-2.8969583e-10
-3.1354606e-10
3.240507e-10
3.564652e-10
-3.8516892e-10
-3.9994386e-10
4.1727067e-10
4.4040704e-10
-4.562275e-10
-4.6330398e-10
4.8581821e-10
5.0111527e-10
-3.9058914e-10
-4.9843833e-10
4.1752146e-10
5.335062e-10
-4.1053571e-10
-5.0091076e-10
4.3475773e-10
5.3323215e-10
-5.1811522e-10
-5.779734e-10
5.396585e-10
6.0761493e-10
-4.9512413e-10
-6.1572362e-10
5.1408633e-10
6.4280278e-10
-4.5785387e-10
-7.2302078e-10
4.7438744e-10
7.4769019e-10
-5.2416744e-10
-7.8781792e-10
5.3846482e-10
8.1024911e-10
-5.9147312e-10
-8.1024188e-10
6.0375236e-10
8.3061333e-10
-6.6940605e-10
-7.9189509e-10
6.7989936e-10
8.1038026e-10
-6.5763829e-10
-8.4709203e-10
6.6657994e-10
8.6384705e-10
-6.7835623e-10
-9.8123547e-10
6.859728e-10
9.9639107e-10
-6.3194211e-10
-9.8012987e-10
6.3844352e-10
9.937874e-10
-6.4019441e-10
-9.6499216e-10
6.4576546e-10
9.7721704e-10
-7.1276479e-10
-1.0597439e-09
7.1755994e-10
1.0705627e-09
-8.5736285e-10
-1.2801181e-09
8.6150287e-10
1.2895207e-09
-9.680339e-10
-1.9774258e-09
9.7160139e-10
1.9853655e-09
-4.7735906e-11
-1.6192257e-09
5.0773322e-11
1.6256218e-09
-1.4226482e-09
-1.3381384e-09
1.4251606e-09
1.3428868e-09
-6.4753091e-10
-1.1587799e-09
6.4949201e-10
1.1617583e-09
7.0162067e-11
-2.2160806e-09
-6.8793081e-11
2.2171694e-09
-1.4725478e-09
-1.2064359e-09
1.4732966e-09
1.2055589e-09
-8.1742831e-10
-1.4819792e-09
8.175841e-10
1.4791382e-09
-1.2704428e-09
-8.4364976e-10
1.2701507e-09
8.3897659e-10
-5.8868221e-10
-1.5248604e-09
5.8828428e-10
1.5186888e-09
-9.6852594e-10
-1.3116722e-09
9.6864869e-10
1.3046035e-09
-1.281109e-09
-1.3045444e-09
1.2827308e-09
1.297476e-09
-4.0337231e-10
-3.6282182e-10
4.0781929e-10
3.5688256e-10
-5.490303e-10
-1.7537553e-09
5.5776072e-10
1.7500887e-09
-6.1273362e-10
-9.4103202e-10
6.2696374e-10
9.4027387e-10
-5.9960709e-10
-1.0816788e-09
6.1917141e-10
1.08338e-09
-4.815759e-10
-6.789173e-10
5.0968938e-10
6.7981978e-10
-1.2653206e-10
-4.584064e-11
1.3455204e-10
4.9553954e-11
2.6642373e-10
-9.8063634e-10
-2.9067557e-10
9.9146467e-10
2.3238385e-10
3.2927551e-10
-2.9685716e-10
-2.5953275e-10
-7.6776935e-10
-6.5751289e-10
6.7605279e-10
7.3686711e-10
-3.069536e-10
-2.0187964e-10
2.042947e-10
1.9293079e-10
-5.568159e-10
-5.9380192e-10
4.9669097e-10
5.311862e-10
-2.6931127e-10
-2.1229555e-10
2.0072471e-10
1.5666959e-10
-2.7420355e-10
-2.5985381e-10
1.9338699e-10
2.0222855e-10
-2.720796e-10
-2.2791899e-10
1.8463998e-10
1.6549678e-10
-2.2593914e-10
-2.046933e-10
1.3784517e-10
1.3926942e-10
-1.7440285e-10
-1.6897056e-10
9.1689605e-11
1.0491227e-10
-1.5019615e-10
-1.4273561e-10
7.8919642e-11
8.4231106e-11
-1.2183795e-10
-1.3215417e-10
6.6374347e-11
8.2145492e-11
-1.0958041e-10
-1.1825785e-10
7.1559981e-11
7.8329864e-11
-9.113562e-11
-9.3802351e-11
6.9759503e-11
6.447807e-11
-7.3579714e-11
-8.4561148e-11
6.7027981e-11
6.5697524e-11
-7.3518579e-11
-9.0126508e-11
7.9729883e-11
8.1188877e-11
-7.1905998e-11
-8.6624386e-11
8.8853921e-11
8.6813995e-11
-7.8508487e-11
-9.4593486e-11
1.0419238e-10
1.0289955e-10
-9.0063212e-11
-1.1492426e-10
1.2241639e-10
1.301759e-10
-1.0395396e-10
-1.3110008e-10
1.4116067e-10
1.5205672e-10
-1.2699764e-10
-1.3889081e-10
1.6769647e-10
1.6433065e-10
-1.5104281e-10
-1.6519536e-10
1.9398585e-10
1.9400594e-10
-1.7350859e-10
-1.976198e-10
2.1748313e-10
2.2870401e-10
-1.9953803e-10
-2.3100033e-10
2.4353178e-10
2.6317656e-10
-2.3298958e-10
-2.5820898e-10
2.7622042e-10
2.9047784e-10
-2.667651e-10
-3.0480912e-10
3.0865387e-10
3.3646119e-10
-2.8367667e-10
-3.189421e-10
3.2380858e-10
3.494336e-10
-2.6798961e-10
-4.0476118e-10
3.0608602e-10
4.3367766e-10
-3.3876177e-10
-3.5654278e-10
3.7465383e-10
3.8359733e-10
-3.8374537e-10
-5.019514e-10
4.1735143e-10
5.2697639e-10
-4.0334431e-10
-5.0367943e-10
4.3465457e-10
5.2660592e-10
-5.1060003e-10
-5.7993249e-10
5.3965733e-10
6.0077607e-10
-5.9830058e-10
-7.2776377e-10
6.2518735e-10
7.4660828e-10
-5.6086044e-10
-7.2316517e-10
5.8568661e-10
7.4014674e-10
-5.1617401e-10
-7.8696013e-10
5.3906311e-10
8.0225263e-10
-6.9454601e-10
-8.0832557e-10
7.1562564e-10
8.221273e-10
-6.6181092e-10
-7.8887392e-10
6.8120282e-10
8.0139129e-10
-6.5052638e-10
-8.4293364e-10
6.6833731e-10
8.5436968e-10
-6.7193683e-10
-9.7592429e-10
6.8825014e-10
9.8646979e-10
-7.373846e-10
-9.7367393e-10
7.5225462e-10
9.8349598e-10
-7.4674909e-10
-1.0683846e-09
7.6019959e-10
1.0776191e-09
-7.0966719e-10
-1.0511433e-09
7.2168725e-10
1.0598887e-09
-8.557361e-10
-1.2705911e-09
8.662798e-10
1.2789032e-09
-9.6800478e-10
-8.57567e-10
9.7699536e-10
8.6545683e-10
-4.9376512e-11
-1.6083569e-09
5.6711333e-11
1.6157901e-09
-1.4259642e-09
-1.3269532e-09
1.4315223e-09
1.3338489e-09
-6.5244683e-10
-1.1475826e-09
6.5610551e-10
1.1538325e-09
6.3813189e-11
-2.2052234e-09
-6.2156783e-11
2.2107055e-09
-1.4800623e-09
-1.1963155e-09
1.4796682e-09
1.2009083e-09
-8.2573532e-10
-1.4730247e-09
8.2335214e-10
1.4766715e-09
-1.695079e-10
-8.3630484e-10
1.6537467e-10
8.3908335e-10
-5.9706678e-10
-1.519561e-09
5.9168111e-10
1.5217474e-09
-9.7606213e-10
-1.9925312e-10
9.702572e-10
2.0139725e-10
-1.7763782e-10
-1.3044284e-09
1.7261924e-10
1.3073854e-09
-4.0751187e-10
-3.6557899e-10
4.0477099e-10
3.7042333e-10
-5.50917e-10
-1.7592597e-09
5.5189782e-10
1.7670006e-09
4.9723997e-10
-9.4857123e-10
-4.9172651e-10
9.5959477e-10
-5.9726067e-10
2.0232395e-11
6.0662076e-10
-6.7711738e-12
-4.7745591e-10
-1.7875921e-09
4.8872209e-10
1.8003183e-09
-1.2525372e-10
-5.8440996e-11
1.2475762e-10
6.0136973e-11
2.6242176e-10
-1.0224925e-09
-2.7481234e-10
1.0100028e-09
)
;

boundaryField
{
    movingWall
    {
        type            calculated;
        value           nonuniform List<scalar> 
16
(
3.9672614e-10
3.9125488e-10
3.9672607e-10
3.9125498e-10
-4.7833886e-10
-5.2805062e-10
-4.7833889e-10
-5.2805064e-10
-4.2694085e-10
-4.0337121e-10
-4.2694084e-10
-4.0337113e-10
4.9171718e-10
5.1084823e-10
4.9171707e-10
5.1084817e-10
)
;
    }
    CPLReceiveMD
    {
        type            calculated;
        value           nonuniform List<scalar> 
16
(
-4.4460454e-09
-2.9056125e-10
-2.9191309e-10
-3.0340528e-10
-3.8975225e-10
-1.4127723e-10
-5.0278843e-11
-1.40031e-10
3.3488212e-10
2.3187642e-10
3.4337315e-10
2.084798e-10
-1.3763535e-12
1.8904689e-10
3.3497558e-10
1.7988825e-10
)
;
    }
    streamwiseIn
    {
        type            cyclic;
    }
    streamwiseOut
    {
        type            cyclic;
    }
    front
    {
        type            cyclic;
    }
    back
    {
        type            cyclic;
    }
}


// ************************************************************************* //
