/*--------------------------------*- C++ -*----------------------------------*\
| =========                 |                                                 |
| \\      /  F ield         | OpenFOAM: The Open Source CFD Toolbox           |
|  \\    /   O peration     | Version:  3.0.x                                 |
|   \\  /    A nd           | Web:      www.OpenFOAM.org                      |
|    \\/     M anipulation  |                                                 |
\*---------------------------------------------------------------------------*/
FoamFile
{
    version     2.0;
    format      ascii;
    class       volScalarField;
    location    "175";
    object      sigmayy;
}
// * * * * * * * * * * * * * * * * * * * * * * * * * * * * * * * * * * * * * //

dimensions      [0 2 -2 0 0 0 0];

internalField   nonuniform List<scalar> 
960
(
1.3340826e-09
-3.7157662e-09
3.9654087e-09
3.9411601e-09
-7.1839691e-09
-7.3641788e-09
8.0778011e-09
7.3549617e-09
-7.9877402e-09
-6.488645e-09
7.1175859e-09
6.6531727e-09
-4.0073054e-09
-2.8682796e-09
2.9339899e-09
3.137474e-09
1.368889e-09
2.049296e-09
-2.1883447e-09
-1.7745374e-09
4.6722917e-09
5.3041936e-09
-5.3624618e-09
-5.0488738e-09
5.1096551e-09
5.8902508e-09
-5.6683627e-09
-5.6559732e-09
4.1901371e-09
4.9848276e-09
-4.621181e-09
-4.7785006e-09
3.1095011e-09
3.791418e-09
-3.4465628e-09
-3.6262193e-09
2.5458948e-09
3.0603577e-09
-2.8218068e-09
-2.9451162e-09
2.5646078e-09
2.9358442e-09
-2.7985323e-09
-2.8718656e-09
2.9811901e-09
3.2614352e-09
-3.1817718e-09
-3.2440711e-09
3.4595762e-09
3.7107733e-09
-3.6334522e-09
-3.7325814e-09
3.7886359e-09
4.0880394e-09
-3.9421538e-09
-4.1409856e-09
3.8897608e-09
4.2780972e-09
-4.0281248e-09
-4.354737e-09
3.7940936e-09
4.2705384e-09
-3.9212025e-09
-4.3644919e-09
3.5454678e-09
4.1336011e-09
-3.6648095e-09
-4.2396446e-09
3.2287471e-09
3.9414162e-09
-3.3431808e-09
-4.055299e-09
2.8880005e-09
3.7338887e-09
-2.9985904e-09
-3.8520486e-09
2.5858519e-09
3.5757749e-09
-2.6923913e-09
-3.6951747e-09
2.2952823e-09
3.4765082e-09
-2.3974486e-09
-3.5945607e-09
2.0556087e-09
3.4113114e-09
-2.1531298e-09
-3.5261725e-09
1.8109251e-09
3.3698925e-09
-1.9034817e-09
-3.4805274e-09
1.5471299e-09
3.3602274e-09
-1.634344e-09
-3.4657768e-09
1.2503031e-09
3.3336405e-09
-1.3318073e-09
-3.4333096e-09
9.0842512e-10
3.2863398e-09
-9.839218e-10
-3.3796426e-09
4.3463584e-10
3.1270866e-09
-5.0392716e-10
-3.2137954e-09
-8.8246835e-11
2.9215942e-09
2.524945e-11
-3.0016673e-09
-5.5184738e-10
2.6595115e-09
4.9512175e-10
-2.7330557e-09
-1.1772896e-09
2.3319933e-09
1.1266986e-09
-2.3992347e-09
-1.960439e-09
1.8206969e-09
1.9157411e-09
-1.8819525e-09
-2.6719388e-09
1.2307024e-09
2.6328041e-09
-1.286354e-09
-3.4120512e-09
4.4687689e-10
3.3780763e-09
-4.9734216e-10
-4.277907e-09
-4.2199476e-10
4.2486321e-09
3.762815e-10
-5.1418097e-09
-1.3756464e-09
5.1167405e-09
1.3342609e-09
-5.9844802e-09
-2.4108644e-09
5.9631107e-09
2.3734125e-09
-6.6737025e-09
-3.6318832e-09
6.6555331e-09
3.5980113e-09
-7.297965e-09
-5.027892e-09
7.2825184e-09
4.9973076e-09
-7.7236333e-09
-6.3615416e-09
7.7104707e-09
6.3340223e-09
-8.039976e-09
-7.7232638e-09
8.0287146e-09
7.6986609e-09
-8.2276878e-09
-9.1980826e-09
8.2180086e-09
9.1763279e-09
-8.2713482e-09
-1.0754528e-08
8.2630019e-09
1.0735635e-08
-8.0499975e-09
-1.268858e-08
8.0428133e-09
1.2672638e-08
-6.5619069e-09
-1.3404974e-08
6.5557955e-09
1.3392133e-08
-7.1407577e-09
-1.3967143e-08
7.1357066e-09
1.3957608e-08
-5.3623089e-09
-1.4325855e-08
5.3583667e-09
1.4319871e-08
-3.4690111e-09
-1.5539931e-08
3.4662577e-09
1.5537732e-08
-3.71227e-09
-1.4230538e-08
3.7107613e-09
1.4232275e-08
-1.693828e-09
-1.3679449e-08
1.6935085e-09
1.3685119e-08
-7.8779769e-10
-1.1627425e-08
7.8837578e-10
1.1636764e-08
1.1773627e-09
-1.0265004e-08
-1.1765713e-09
1.0277339e-08
1.9370504e-09
-7.3627003e-09
-1.937299e-09
7.37683e-09
2.5622157e-09
-4.0482735e-09
-2.565462e-09
4.0624068e-09
4.1354241e-09
7.2564304e-10
-4.1443196e-09
-7.1376589e-10
4.426741e-09
3.5075101e-09
-4.4442025e-09
-3.5001779e-09
4.5541471e-09
8.5394243e-09
-4.5826082e-09
-8.5379097e-09
4.5278941e-09
1.2149398e-08
-4.5670236e-09
-1.2152802e-08
4.2918319e-09
1.4672555e-08
-4.3480594e-09
-1.4674361e-08
3.5817443e-09
1.3406401e-08
-3.5977846e-09
-1.3413829e-08
2.7958327e-09
8.6186331e-09
-2.7473292e-09
-8.6402903e-09
-3.8385685e-09
-3.9202165e-09
3.9349694e-09
3.7651299e-09
-7.4673896e-09
-7.3277387e-09
7.6350324e-09
7.193411e-09
-6.3892494e-09
-6.2401813e-09
6.5830834e-09
6.2960708e-09
-2.5564285e-09
-2.7906781e-09
2.6595314e-09
2.9592108e-09
2.5206279e-09
2.1074798e-09
-2.4143167e-09
-1.9511655e-09
5.5221182e-09
5.1997481e-09
-5.3946563e-09
-5.0387383e-09
5.7502011e-09
5.757418e-09
-5.6073978e-09
-5.5873544e-09
4.659218e-09
4.8556462e-09
-4.5137846e-09
-4.6820407e-09
3.468437e-09
3.7171095e-09
-3.3334583e-09
-3.5505807e-09
2.8446962e-09
3.0297691e-09
-2.7295686e-09
-2.8797487e-09
2.8256081e-09
2.939473e-09
-2.7358247e-09
-2.8121433e-09
3.1719112e-09
3.2753507e-09
-3.1104197e-09
-3.1737345e-09
3.6041913e-09
3.7567471e-09
-3.5712155e-09
-3.6814587e-09
3.904189e-09
4.1357324e-09
-3.8973688e-09
-4.085809e-09
3.9723112e-09
4.3116895e-09
-3.9884018e-09
-4.2852517e-09
3.845016e-09
4.310107e-09
-3.8806216e-09
-4.3047362e-09
3.5753997e-09
4.1686949e-09
-3.6268097e-09
-4.1816294e-09
3.2432104e-09
3.9590647e-09
-3.3067312e-09
-3.9873686e-09
2.9051704e-09
3.7579578e-09
-2.9778217e-09
-3.7987052e-09
2.5851918e-09
3.6067948e-09
-2.6646402e-09
-3.6571732e-09
2.3004412e-09
3.4927716e-09
-2.3843428e-09
-3.5502847e-09
2.0457688e-09
3.4243684e-09
-2.1318022e-09
-3.4866782e-09
1.7981619e-09
3.3912267e-09
-1.8843927e-09
-3.4558558e-09
1.5320781e-09
3.3790471e-09
-1.61699e-09
-3.4439006e-09
1.2333445e-09
3.339076e-09
-1.3157958e-09
-3.4027019e-09
9.0088419e-10
3.3007556e-09
-9.8003982e-10
-3.3620426e-09
5.3652356e-10
3.1395296e-09
-6.118062e-10
-3.1976286e-09
1.2229064e-11
3.0431046e-09
-8.3277092e-11
-3.0974343e-09
-5.636294e-10
2.6681981e-09
4.9700325e-10
-2.7184252e-09
-1.1902421e-09
2.3387958e-09
1.1280851e-09
-2.3847905e-09
-1.9743948e-09
1.8255742e-09
1.9166434e-09
-1.8673726e-09
-2.7976471e-09
1.12264e-09
2.7441543e-09
-1.1604147e-09
-3.5383019e-09
4.4771067e-10
3.4888664e-09
-4.8174138e-10
-4.2934399e-09
-4.2330098e-10
4.2478291e-09
3.9266236e-10
-5.2681925e-09
-1.3791694e-09
5.2261609e-09
1.3515263e-09
-5.9994184e-09
-2.416675e-09
5.9607294e-09
2.3916095e-09
-6.6877363e-09
-3.6400278e-09
6.6521871e-09
3.6171303e-09
-7.3106611e-09
-5.0383851e-09
7.2780916e-09
5.0172742e-09
-7.8455103e-09
-6.3743566e-09
7.8158128e-09
6.3546966e-09
-8.1596555e-09
-7.8492749e-09
8.1327869e-09
7.8307936e-09
-8.2338238e-09
-9.2152292e-09
8.2098084e-09
9.1977293e-09
-8.2745574e-09
-1.0773541e-08
8.253489e-09
1.0756909e-08
-8.0500226e-09
-1.159959e-08
8.0320562e-09
1.1583802e-08
-6.5586009e-09
-1.342669e-08
6.5439426e-09
1.3411817e-08
-7.1341074e-09
-1.3989496e-08
7.1229996e-09
1.3975701e-08
-5.3524629e-09
-1.4348237e-08
5.3451524e-09
1.4335734e-08
-3.4563031e-09
-1.5561636e-08
3.452996e-09
1.5550669e-08
-3.6972338e-09
-1.4250772e-08
3.6980251e-09
1.4241583e-08
-1.6772085e-09
-1.3697353e-08
1.6819777e-09
1.3690057e-08
3.3901756e-10
-1.1642111e-08
-3.3074789e-10
1.1636554e-08
1.1941351e-09
-1.0275599e-08
-1.1833609e-09
1.0271226e-08
1.9521248e-09
-6.2588555e-09
-1.9405141e-09
6.2545648e-09
3.6839564e-09
-4.0485032e-09
-3.6739194e-09
4.0425895e-09
4.1437048e-09
7.3115872e-10
-4.1382215e-09
-7.4084603e-10
4.4305152e-09
3.5185184e-09
-4.4324751e-09
-3.5340022e-09
5.6628812e-09
8.5545021e-09
-5.6739073e-09
-8.5765512e-09
4.5232019e-09
1.3274256e-08
-4.5419217e-09
-1.3301179e-08
4.2835924e-09
1.3561225e-08
-4.3061243e-09
-1.3586677e-08
3.579188e-09
1.3431603e-08
-3.5781954e-09
-1.3434995e-08
2.8038368e-09
8.7023455e-09
-2.7790555e-09
-8.6773664e-09
-3.9082453e-09
-3.9528717e-09
3.9583528e-09
3.7139382e-09
-7.4380567e-09
-7.3576238e-09
7.9306488e-09
7.3709338e-09
-6.2297627e-09
-6.432961e-09
6.84073e-09
6.7153364e-09
-2.4403242e-09
-2.715076e-09
2.9262302e-09
3.0633679e-09
2.649477e-09
2.0595647e-09
-2.267526e-09
-1.7743486e-09
5.6153224e-09
5.3083355e-09
-5.3093563e-09
-5.0546737e-09
5.9160049e-09
5.9165477e-09
-5.6720297e-09
-5.6826218e-09
4.7859737e-09
4.9913575e-09
-4.5990906e-09
-4.7788906e-09
3.5478624e-09
3.802502e-09
-3.4145514e-09
-3.6206903e-09
2.8698274e-09
3.0766254e-09
-2.7833955e-09
-2.9332228e-09
2.8150399e-09
2.9675943e-09
-2.766559e-09
-2.8658411e-09
3.1534498e-09
3.2846902e-09
-3.1345026e-09
-3.2236793e-09
3.5889233e-09
3.734765e-09
-3.5929803e-09
-3.7108628e-09
3.8968467e-09
4.1112974e-09
-3.9192754e-09
-4.1195148e-09
3.9736396e-09
4.2996304e-09
-4.0112855e-09
-4.3346126e-09
3.8503455e-09
4.2897785e-09
-3.9008895e-09
-4.3463615e-09
3.5876732e-09
4.1503414e-09
-3.648827e-09
-4.2237654e-09
3.2586498e-09
3.9556945e-09
-3.3282455e-09
-4.0416798e-09
2.9104678e-09
3.7458539e-09
-2.9864824e-09
-3.8405906e-09
2.6027743e-09
3.5856515e-09
-2.6828271e-09
-3.6857954e-09
2.3080226e-09
3.4845643e-09
-2.3899668e-09
-3.5870559e-09
2.0650775e-09
3.4177991e-09
-2.1473005e-09
-3.5200397e-09
1.8179153e-09
3.3750467e-09
-1.8989558e-09
-3.475385e-09
1.552276e-09
3.3642877e-09
-1.6308503e-09
-3.4615716e-09
1.2540881e-09
3.3368389e-09
-1.3291244e-09
-3.429983e-09
9.1120913e-10
3.2888662e-09
-9.8186741e-10
-3.3770469e-09
4.3668831e-10
3.1290735e-09
-5.0235614e-10
-3.2117831e-09
-8.6730865e-11
2.9231414e-09
2.6449278e-11
-3.000117e-09
-5.5072715e-10
2.6607073e-09
4.9603628e-10
-2.7318667e-09
-1.1764596e-09
2.3329097e-09
1.1273953e-09
-2.3983254e-09
-1.9598224e-09
1.8213941e-09
1.9162705e-09
-1.8812599e-09
-2.6714794e-09
1.2312302e-09
2.633206e-09
-1.2858274e-09
-3.4117102e-09
4.4727443e-10
3.3783817e-09
-4.9694356e-10
-4.2776531e-09
-4.2169475e-10
4.2488626e-09
3.7658394e-10
-5.1416203e-09
-1.3754204e-09
5.1169155e-09
1.3344907e-09
-5.9843396e-09
-2.4106952e-09
5.9632437e-09
2.3735844e-09
-6.673597e-09
-3.6317562e-09
6.6556322e-09
3.5981406e-09
-7.2978866e-09
-5.0277966e-09
7.2825928e-09
4.997406e-09
-7.723575e-09
-6.3614702e-09
7.7105271e-09
6.3340954e-09
-8.0399326e-09
-7.7232104e-09
8.028757e-09
7.6987158e-09
-8.2276555e-09
-9.1980417e-09
8.2180404e-09
9.1763703e-09
-8.2713242e-09
-1.0754497e-08
8.2630258e-09
1.0735667e-08
-8.0499797e-09
-1.2688559e-08
8.0428312e-09
1.2672661e-08
-6.5618937e-09
-1.3404957e-08
6.5558088e-09
1.3392151e-08
-7.140748e-09
-1.396713e-08
7.1357159e-09
1.3957622e-08
-5.3623014e-09
-1.4325846e-08
5.3583738e-09
1.4319881e-08
-3.4690063e-09
-1.5539923e-08
3.4662644e-09
1.553774e-08
-3.7122664e-09
-1.4230532e-08
3.7107659e-09
1.4232281e-08
-1.6938247e-09
-1.3679445e-08
1.693511e-09
1.3685123e-08
-7.8779544e-10
-1.1627423e-08
7.8837807e-10
1.1636767e-08
1.1773639e-09
-1.0265001e-08
-1.1765692e-09
1.0277343e-08
1.9370515e-09
-7.3626972e-09
-1.9372978e-09
7.3768331e-09
2.5622177e-09
-4.0482723e-09
-2.5654618e-09
4.0624081e-09
4.1354247e-09
7.2564331e-10
-4.1443191e-09
-7.1376558e-10
4.4267408e-09
3.5075103e-09
-4.4442019e-09
-3.5001777e-09
4.5541475e-09
8.5394244e-09
-4.5826079e-09
-8.5379087e-09
4.5278944e-09
1.2149398e-08
-4.5670232e-09
-1.2152801e-08
4.2918321e-09
1.4672556e-08
-4.3480591e-09
-1.4674361e-08
3.5817444e-09
1.3406402e-08
-3.5977844e-09
-1.3413829e-08
2.7958328e-09
8.6186333e-09
-2.7473292e-09
-8.64029e-09
-3.8339521e-09
-3.9162799e-09
3.9472341e-09
3.7878998e-09
-7.4647762e-09
-7.3272418e-09
7.6247018e-09
7.1966673e-09
-6.3930922e-09
-6.2377337e-09
6.5707924e-09
6.2910205e-09
-2.5659708e-09
-2.7903698e-09
2.6581776e-09
2.952123e-09
2.5185658e-09
2.1042141e-09
-2.4074019e-09
-1.9589109e-09
5.526258e-09
5.1931157e-09
-5.3871728e-09
-5.0482074e-09
5.7577095e-09
5.7593594e-09
-5.6012852e-09
-5.6100061e-09
4.6697965e-09
4.8451684e-09
-4.5076218e-09
-4.6949073e-09
3.5043933e-09
3.7065042e-09
-3.3487444e-09
-3.5635726e-09
2.8592369e-09
3.0198622e-09
-2.7228709e-09
-2.8919472e-09
2.8375907e-09
2.9307332e-09
-2.7301515e-09
-2.8229867e-09
3.1805236e-09
3.2680143e-09
-3.1060019e-09
-3.1829052e-09
3.6105819e-09
3.7508851e-09
-3.5679414e-09
-3.6888368e-09
3.9089691e-09
4.1312633e-09
-3.8950331e-09
-4.0914711e-09
3.9758078e-09
4.3084242e-09
-3.9868247e-09
-4.2894087e-09
3.8462935e-09
4.3078059e-09
-3.8784918e-09
-4.3076598e-09
3.5766035e-09
4.1671206e-09
-3.6262095e-09
-4.1835966e-09
3.2435045e-09
3.958023e-09
-3.306522e-09
-3.9886202e-09
2.9050521e-09
3.7573058e-09
-2.977919e-09
-3.7994336e-09
2.5848848e-09
3.6064223e-09
-2.6649131e-09
-3.6575671e-09
2.2999954e-09
3.4925846e-09
-2.3847046e-09
-3.5504801e-09
2.0452344e-09
3.4242836e-09
-2.1321958e-09
-3.4867075e-09
1.7976085e-09
3.3911863e-09
-1.8847829e-09
-3.4557639e-09
1.5315516e-09
3.3790361e-09
-1.6173545e-09
-3.4437644e-09
1.2328689e-09
3.3390974e-09
-1.3161196e-09
-3.4025576e-09
9.0047111e-10
3.300798e-09
-9.8031837e-10
-3.3619058e-09
5.3617478e-10
3.1395751e-09
-6.1204131e-10
-3.1975064e-09
1.1939355e-11
3.0431439e-09
-8.3469928e-11
-3.0973298e-09
-5.6386424e-10
2.6682292e-09
4.9684783e-10
-2.718339e-09
-1.1904297e-09
2.3388204e-09
1.1279594e-09
-2.3847199e-09
-1.9745436e-09
1.8255929e-09
1.9165439e-09
-1.8673161e-09
-2.7977629e-09
1.1226531e-09
2.744077e-09
-1.1603702e-09
-3.5383918e-09
4.4772113e-10
3.4888061e-09
-4.8170632e-10
-4.2935103e-09
-4.2329205e-10
4.2477828e-09
3.9268968e-10
-5.2682456e-09
-1.3791645e-09
5.226125e-09
1.3515473e-09
-5.9994573e-09
-2.4166713e-09
5.960703e-09
2.3916256e-09
-6.6877666e-09
-3.6400236e-09
6.6521672e-09
3.6171426e-09
-7.3106849e-09
-5.038382e-09
7.2780755e-09
5.0172839e-09
-7.8455278e-09
-6.3743546e-09
7.815801e-09
6.3547046e-09
-8.1596686e-09
-7.849273e-09
8.1327778e-09
7.8307993e-09
-8.2338338e-09
-9.2152276e-09
8.2098016e-09
9.1977328e-09
-8.2745651e-09
-1.077354e-08
8.2534838e-09
1.0756913e-08
-8.0500285e-09
-1.1599588e-08
8.0320521e-09
1.1583806e-08
-6.5586054e-09
-1.3426688e-08
6.5439395e-09
1.341182e-08
-7.1341108e-09
-1.3989496e-08
7.1229975e-09
1.3975702e-08
-5.3524656e-09
-1.4348237e-08
5.3451505e-09
1.4335736e-08
-3.4563056e-09
-1.5561635e-08
3.4529946e-09
1.555067e-08
-3.6972352e-09
-1.4250771e-08
3.6980247e-09
1.4241584e-08
-1.677209e-09
-1.3697352e-08
1.6819765e-09
1.3690058e-08
3.3901633e-10
-1.1642112e-08
-3.3074901e-10
1.1636554e-08
1.1941339e-09
-1.0275599e-08
-1.183362e-09
1.0271226e-08
1.9521246e-09
-6.2588545e-09
-1.9405142e-09
6.2545658e-09
3.6839562e-09
-4.048504e-09
-3.6739186e-09
4.0425896e-09
4.1437042e-09
7.3115789e-10
-4.1382222e-09
-7.4084681e-10
4.4305145e-09
3.5185193e-09
-4.4324759e-09
-3.5340012e-09
5.6628808e-09
8.554503e-09
-5.6739075e-09
-8.5765503e-09
4.5232018e-09
1.3274256e-08
-4.5419218e-09
-1.3301179e-08
4.2835922e-09
1.3561225e-08
-4.3061244e-09
-1.3586678e-08
3.5791878e-09
1.3431603e-08
-3.5781955e-09
-1.3434995e-08
2.8038368e-09
8.7023457e-09
-2.7790556e-09
-8.6773663e-09
)
;

boundaryField
{
    movingWall
    {
        type            calculated;
        value           nonuniform List<scalar> 
16
(
2.535228e-09
2.5461704e-09
2.5352281e-09
2.5461704e-09
7.6140383e-09
7.7134618e-09
7.6140384e-09
7.7134619e-09
-2.4747985e-09
-2.5219379e-09
-2.4747986e-09
-2.521938e-09
-7.6407949e-09
-7.679057e-09
-7.6407948e-09
-7.679057e-09
)
;
    }
    CPLReceiveMD
    {
        type            calculated;
        value           nonuniform List<scalar> 
16
(
5.3788486e-09
-2.7736273e-09
-2.8931602e-09
-2.7623738e-09
-2.6081122e-09
-2.98393e-09
-3.036039e-09
-2.9776669e-09
2.8128927e-09
2.9066616e-09
2.8208254e-09
2.9365601e-09
3.136141e-09
2.8772853e-09
2.7208739e-09
2.9090578e-09
)
;
    }
    streamwiseIn
    {
        type            cyclic;
    }
    streamwiseOut
    {
        type            cyclic;
    }
    front
    {
        type            cyclic;
    }
    back
    {
        type            cyclic;
    }
}


// ************************************************************************* //
