/*--------------------------------*- C++ -*----------------------------------*\
| =========                 |                                                 |
| \\      /  F ield         | OpenFOAM: The Open Source CFD Toolbox           |
|  \\    /   O peration     | Version:  3.0.x                                 |
|   \\  /    A nd           | Web:      www.OpenFOAM.org                      |
|    \\/     M anipulation  |                                                 |
\*---------------------------------------------------------------------------*/
FoamFile
{
    version     2.0;
    format      ascii;
    class       volScalarField;
    location    "175";
    object      sigmaxy;
}
// * * * * * * * * * * * * * * * * * * * * * * * * * * * * * * * * * * * * * //

dimensions      [0 2 -2 0 0 0 0];

internalField   nonuniform List<scalar> 
960
(
0.011004119
0.011004144
0.011004143
0.011004118
-0.0026133306
-0.0026133211
-0.0026133215
-0.0026133299
-0.00037592654
-0.00037593252
-0.00037593207
-0.00037592411
0.0011733397
0.0011733272
0.0011733281
0.0011733407
0.0017263104
0.0017262979
0.0017262982
0.0017263107
0.001785833
0.0017858284
0.0017858289
0.0017858325
0.0016609264
0.0016609283
0.0016609289
0.0016609256
0.001511052
0.001511056
0.0015110565
0.0015110518
0.0013965577
0.0013965605
0.0013965608
0.0013965579
0.0013216006
0.0013216007
0.0013216009
0.001321601
0.0012697259
0.0012697234
0.0012697234
0.0012697262
0.0012253717
0.0012253673
0.0012253673
0.0012253718
0.0011816778
0.0011816726
0.0011816725
0.0011816777
0.0011399646
0.001139959
0.0011399588
0.0011399642
0.001106242
0.0011062361
0.001106236
0.0011062416
0.0010879057
0.0010878995
0.0010878993
0.0010879053
0.0010917156
0.0010917088
0.0010917085
0.0010917151
0.0011230071
0.0011229996
0.0011229991
0.0011230066
0.0011856984
0.0011856899
0.0011856894
0.0011856977
0.001282662
0.0012826526
0.0012826518
0.0012826611
0.0014161756
0.0014161652
0.0014161642
0.0014161746
0.0015883028
0.0015882917
0.0015882906
0.0015883018
0.0018011536
0.0018011418
0.0018011403
0.0018011523
0.0020570243
0.0020570119
0.00205701
0.0020570227
0.0023584448
0.0023584315
0.0023584297
0.0023584427
0.002708157
0.0027081438
0.0027081413
0.0027081547
0.0031090535
0.0031090408
0.0031090375
0.0031090515
0.0035640919
0.003564078
0.003564075
0.0035640896
0.0040761917
0.0040761774
0.0040761739
0.0040761889
0.0046481282
0.0046481149
0.0046481103
0.004648125
0.0052824252
0.0052824123
0.0052824073
0.0052824222
0.0059812412
0.0059812282
0.0059812234
0.0059812383
0.0067462518
0.0067462396
0.0067462342
0.0067462484
0.0075785401
0.0075785289
0.0075785224
0.0075785362
0.0084784861
0.0084784761
0.0084784683
0.0084784823
0.009445655
0.0094456457
0.0094456381
0.0094456514
0.0104787
0.010478692
0.010478685
0.010478697
0.011575273
0.011575267
0.011575259
0.011575271
0.012731944
0.012731938
0.01273193
0.012731941
0.013944143
0.01394414
0.013944132
0.013944141
0.015206126
0.015206123
0.015206118
0.015206122
0.016510954
0.016510955
0.016510951
0.016510953
0.017850511
0.017850514
0.017850507
0.017850518
0.019215539
0.019215545
0.019215532
0.01921554
0.020595712
0.020595713
0.020595708
0.020595707
0.021979723
0.021979726
0.021979728
0.021979731
0.02335545
0.023355462
0.023355452
0.023355453
0.024710082
0.024710089
0.024710081
0.02471008
0.026030302
0.026030304
0.026030304
0.026030301
0.027302524
0.027302528
0.027302528
0.027302524
0.028513089
0.028513101
0.028513096
0.028513097
0.029648543
0.029648549
0.029648545
0.029648539
0.030695834
0.030695827
0.030695831
0.030695825
0.03164258
0.031642579
0.031642583
0.031642578
0.032477345
0.032477343
0.032477348
0.032477337
0.033189821
0.033189817
0.033189815
0.033189812
0.033771063
0.033771064
0.033771062
0.033771061
0.034213689
0.03421368
0.03421369
0.034213678
0.034511989
0.034511985
0.034512006
0.034511984
0.034662108
0.034662122
0.034662148
0.034662108
0.01100412
0.011004145
0.011004144
0.01100412
-0.0026133286
-0.002613319
-0.0026133201
-0.002613328
-0.00037592519
-0.00037593073
-0.00037593078
-0.00037592393
0.0011733391
0.0011733268
0.0011733274
0.0011733397
0.0017263098
0.0017262968
0.0017262975
0.0017263092
0.0017858313
0.0017858273
0.0017858279
0.0017858302
0.0016609249
0.0016609275
0.0016609274
0.001660924
0.0015110515
0.0015110558
0.0015110559
0.001511051
0.0013965577
0.0013965606
0.0013965607
0.0013965578
0.0013216008
0.0013216009
0.0013216011
0.0013216011
0.0012697261
0.0012697236
0.0012697236
0.0012697263
0.0012253717
0.0012253674
0.0012253673
0.0012253717
0.0011816778
0.0011816725
0.0011816724
0.0011816776
0.0011399644
0.0011399588
0.0011399587
0.0011399641
0.0011062418
0.001106236
0.0011062357
0.0011062414
0.0010879056
0.0010878994
0.0010878991
0.0010879051
0.0010917154
0.0010917087
0.0010917083
0.001091715
0.001123007
0.0011229994
0.001122999
0.0011230064
0.0011856983
0.0011856898
0.0011856892
0.0011856976
0.0012826619
0.0012826525
0.0012826516
0.0012826611
0.0014161754
0.0014161652
0.0014161642
0.0014161746
0.0015883028
0.0015882916
0.0015882904
0.0015883017
0.0018011535
0.0018011416
0.0018011401
0.0018011521
0.0020570242
0.0020570117
0.0020570099
0.0020570226
0.0023584443
0.0023584316
0.0023584291
0.0023584428
0.0027081565
0.0027081432
0.0027081408
0.0027081549
0.0031090542
0.0031090401
0.0031090374
0.0031090515
0.003564092
0.0035640787
0.003564075
0.0035640896
0.0040761911
0.0040761774
0.0040761739
0.0040761883
0.0046481283
0.0046481142
0.0046481103
0.0046481243
0.0052824253
0.005282413
0.0052824079
0.0052824222
0.0059812412
0.0059812289
0.0059812233
0.0059812383
0.0067462518
0.0067462389
0.0067462335
0.0067462484
0.0075785402
0.0075785289
0.0075785223
0.0075785362
0.0084784861
0.0084784761
0.0084784683
0.0084784823
0.009445655
0.0094456457
0.0094456381
0.009445652
0.0104787
0.010478692
0.010478685
0.010478697
0.011575273
0.011575267
0.011575259
0.01157527
0.012731944
0.012731939
0.012731931
0.012731941
0.013944144
0.01394414
0.013944132
0.013944141
0.015206128
0.015206124
0.015206119
0.015206124
0.016510955
0.016510957
0.016510945
0.016510955
0.017850511
0.017850514
0.017850507
0.017850518
0.019215539
0.019215545
0.019215538
0.01921554
0.020595712
0.020595713
0.020595708
0.020595707
0.021979723
0.021979726
0.021979728
0.021979731
0.02335545
0.023355462
0.023355452
0.023355453
0.024710082
0.024710089
0.024710081
0.02471008
0.026030302
0.026030304
0.026030304
0.026030308
0.027302524
0.027302528
0.027302529
0.027302524
0.028513095
0.028513101
0.028513096
0.028513091
0.029648543
0.029648549
0.029648545
0.029648546
0.030695828
0.030695827
0.030695832
0.030695825
0.03164258
0.031642579
0.031642583
0.031642571
0.032477345
0.032477343
0.032477348
0.032477344
0.033189827
0.033189817
0.033189815
0.033189812
0.033771063
0.033771064
0.033771068
0.033771054
0.034213682
0.03421368
0.03421369
0.034213678
0.034511989
0.034511985
0.034512
0.034511984
0.034662108
0.034662122
0.034662148
0.034662108
0.011004119
0.011004144
0.011004143
0.011004118
-0.0026133306
-0.0026133211
-0.0026133215
-0.0026133298
-0.00037592655
-0.00037593201
-0.00037593273
-0.00037592528
0.0011733397
0.0011733282
0.0011733281
0.0011733403
0.0017263104
0.0017262982
0.0017262989
0.0017263104
0.001785833
0.0017858284
0.0017858289
0.0017858319
0.0016609264
0.0016609283
0.0016609289
0.0016609256
0.0015110519
0.0015110563
0.0015110566
0.0015110516
0.0013965577
0.0013965606
0.0013965608
0.0013965577
0.0013216007
0.0013216008
0.0013216009
0.0013216009
0.0012697259
0.0012697235
0.0012697234
0.0012697261
0.0012253716
0.0012253674
0.0012253673
0.0012253717
0.0011816778
0.0011816726
0.0011816725
0.0011816777
0.0011399646
0.001139959
0.0011399588
0.0011399643
0.001106242
0.0011062362
0.001106236
0.0011062416
0.0010879057
0.0010878995
0.0010878993
0.0010879053
0.0010917156
0.0010917088
0.0010917085
0.0010917151
0.0011230071
0.0011229996
0.0011229991
0.0011230065
0.0011856984
0.0011856899
0.0011856894
0.0011856977
0.001282662
0.0012826526
0.0012826518
0.0012826611
0.0014161756
0.0014161652
0.0014161642
0.0014161746
0.0015883028
0.0015882917
0.0015882906
0.0015883018
0.0018011536
0.0018011418
0.0018011403
0.0018011523
0.0020570243
0.0020570119
0.00205701
0.0020570227
0.0023584448
0.0023584315
0.0023584297
0.0023584427
0.002708157
0.0027081438
0.0027081413
0.0027081547
0.0031090535
0.0031090408
0.0031090375
0.0031090515
0.0035640919
0.003564078
0.003564075
0.0035640896
0.0040761917
0.0040761774
0.0040761739
0.0040761889
0.0046481282
0.0046481149
0.0046481103
0.004648125
0.0052824252
0.0052824123
0.0052824073
0.0052824222
0.0059812412
0.0059812282
0.0059812234
0.0059812383
0.0067462518
0.0067462396
0.0067462342
0.0067462484
0.0075785401
0.0075785289
0.0075785224
0.0075785362
0.0084784861
0.0084784761
0.0084784683
0.0084784823
0.009445655
0.0094456457
0.0094456381
0.0094456514
0.0104787
0.010478692
0.010478685
0.010478697
0.011575273
0.011575267
0.011575259
0.011575271
0.012731944
0.012731938
0.01273193
0.012731941
0.013944143
0.01394414
0.013944132
0.013944141
0.015206126
0.015206123
0.015206118
0.015206122
0.016510954
0.016510955
0.016510951
0.016510953
0.017850511
0.017850514
0.017850507
0.017850518
0.019215539
0.019215545
0.019215532
0.01921554
0.020595712
0.020595713
0.020595708
0.020595707
0.021979723
0.021979726
0.021979728
0.021979731
0.02335545
0.023355462
0.023355452
0.023355453
0.024710082
0.024710089
0.024710081
0.02471008
0.026030302
0.026030304
0.026030304
0.026030301
0.027302524
0.027302528
0.027302528
0.027302524
0.028513089
0.028513101
0.028513096
0.028513097
0.029648543
0.029648549
0.029648545
0.029648539
0.030695834
0.030695827
0.030695831
0.030695825
0.03164258
0.031642579
0.031642583
0.031642578
0.032477345
0.032477343
0.032477348
0.032477337
0.033189821
0.033189817
0.033189815
0.033189812
0.033771063
0.033771064
0.033771062
0.033771061
0.034213689
0.03421368
0.03421369
0.034213678
0.034511989
0.034511985
0.034512006
0.034511984
0.034662108
0.034662122
0.034662148
0.034662108
0.01100412
0.011004145
0.011004144
0.01100412
-0.0026133286
-0.002613319
-0.0026133201
-0.002613328
-0.00037592519
-0.00037593073
-0.00037593078
-0.00037592392
0.0011733391
0.0011733268
0.0011733274
0.0011733397
0.0017263098
0.0017262968
0.0017262975
0.0017263092
0.0017858313
0.0017858273
0.0017858278
0.0017858302
0.0016609249
0.0016609275
0.0016609274
0.001660924
0.0015110515
0.0015110557
0.001511056
0.0015110511
0.0013965577
0.0013965606
0.0013965607
0.0013965577
0.0013216008
0.001321601
0.0013216011
0.0013216011
0.0012697261
0.0012697236
0.0012697236
0.0012697263
0.0012253717
0.0012253674
0.0012253673
0.0012253717
0.0011816778
0.0011816725
0.0011816724
0.0011816776
0.0011399644
0.0011399588
0.0011399587
0.0011399641
0.0011062418
0.001106236
0.0011062357
0.0011062414
0.0010879056
0.0010878994
0.0010878991
0.0010879051
0.0010917154
0.0010917087
0.0010917083
0.001091715
0.001123007
0.0011229994
0.001122999
0.0011230064
0.0011856983
0.0011856898
0.0011856892
0.0011856976
0.0012826619
0.0012826525
0.0012826516
0.0012826611
0.0014161754
0.0014161652
0.0014161642
0.0014161746
0.0015883028
0.0015882916
0.0015882904
0.0015883017
0.0018011535
0.0018011416
0.0018011401
0.0018011521
0.0020570242
0.0020570117
0.0020570099
0.0020570226
0.0023584443
0.0023584316
0.0023584291
0.0023584428
0.0027081565
0.0027081432
0.0027081408
0.0027081549
0.0031090542
0.0031090401
0.0031090374
0.0031090515
0.003564092
0.0035640787
0.003564075
0.0035640896
0.0040761911
0.0040761774
0.0040761739
0.0040761883
0.0046481283
0.0046481142
0.0046481103
0.0046481243
0.0052824253
0.005282413
0.0052824079
0.0052824222
0.0059812412
0.0059812289
0.0059812233
0.0059812383
0.0067462518
0.0067462389
0.0067462335
0.0067462484
0.0075785402
0.0075785289
0.0075785223
0.0075785362
0.0084784861
0.0084784761
0.0084784683
0.0084784823
0.009445655
0.0094456457
0.0094456381
0.009445652
0.0104787
0.010478692
0.010478685
0.010478697
0.011575273
0.011575267
0.011575259
0.01157527
0.012731944
0.012731939
0.012731931
0.012731941
0.013944144
0.01394414
0.013944132
0.013944141
0.015206128
0.015206124
0.015206119
0.015206124
0.016510955
0.016510957
0.016510945
0.016510955
0.017850511
0.017850514
0.017850507
0.017850518
0.019215539
0.019215545
0.019215538
0.01921554
0.020595712
0.020595713
0.020595708
0.020595707
0.021979723
0.021979726
0.021979728
0.021979731
0.02335545
0.023355462
0.023355452
0.023355453
0.024710082
0.024710089
0.024710081
0.02471008
0.026030302
0.026030304
0.026030304
0.026030308
0.027302524
0.027302528
0.027302529
0.027302524
0.028513095
0.028513101
0.028513096
0.028513091
0.029648543
0.029648549
0.029648545
0.029648546
0.030695828
0.030695827
0.030695832
0.030695825
0.03164258
0.031642579
0.031642583
0.031642571
0.032477345
0.032477343
0.032477348
0.032477344
0.033189827
0.033189817
0.033189815
0.033189812
0.033771063
0.033771064
0.033771068
0.033771054
0.034213682
0.03421368
0.03421369
0.034213678
0.034511989
0.034511985
0.034512
0.034511984
0.034662108
0.034662122
0.034662148
0.034662108
)
;

boundaryField
{
    movingWall
    {
        type            calculated;
        value           nonuniform List<scalar> 
16
(
0.034699756
0.034699756
0.034699756
0.034699756
0.034699783
0.034699783
0.034699783
0.034699783
0.03469981
0.03469981
0.03469981
0.03469981
0.034699756
0.034699756
0.034699756
0.034699756
)
;
    }
    CPLReceiveMD
    {
        type            calculated;
        value           nonuniform List<scalar> 
16
(
0.025759302
0.025759304
0.025759302
0.025759304
0.025759329
0.025759331
0.025759329
0.025759331
0.025759328
0.02575933
0.025759328
0.02575933
0.025759301
0.025759304
0.025759301
0.025759304
)
;
    }
    streamwiseIn
    {
        type            cyclic;
    }
    streamwiseOut
    {
        type            cyclic;
    }
    front
    {
        type            cyclic;
    }
    back
    {
        type            cyclic;
    }
}


// ************************************************************************* //
