/*--------------------------------*- C++ -*----------------------------------*\
| =========                 |                                                 |
| \\      /  F ield         | OpenFOAM: The Open Source CFD Toolbox           |
|  \\    /   O peration     | Version:  3.0.x                                 |
|   \\  /    A nd           | Web:      www.OpenFOAM.org                      |
|    \\/     M anipulation  |                                                 |
\*---------------------------------------------------------------------------*/
FoamFile
{
    version     2.0;
    format      ascii;
    class       volScalarField;
    location    "175";
    object      sigmaxz;
}
// * * * * * * * * * * * * * * * * * * * * * * * * * * * * * * * * * * * * * //

dimensions      [0 2 -2 0 0 0 0];

internalField   nonuniform List<scalar> 
960
(
-5.874539e-13
-3.0752695e-13
5.8745332e-13
3.0752695e-13
-8.8289816e-13
5.6217832e-13
8.8289816e-13
-5.621789e-13
-9.1347068e-13
1.481011e-12
9.1347068e-13
-1.4810116e-12
-9.0909172e-13
2.0163764e-12
9.0909172e-13
-2.0163764e-12
-8.7140307e-13
2.1301589e-12
8.7140307e-13
-2.1301589e-12
-7.8663057e-13
1.9477854e-12
7.8663057e-13
-1.947786e-12
-6.673538e-13
1.6251512e-12
1.7310755e-11
-1.6251518e-12
-5.3485285e-13
1.2495751e-12
5.3485285e-13
-1.2495754e-12
-4.0576668e-13
1.7528359e-11
4.0576639e-13
-1.7528359e-11
-2.8994202e-13
5.7286272e-13
2.8994202e-13
-5.7286272e-13
-1.9197517e-13
3.5592153e-13
1.9197488e-13
-3.5592182e-13
-1.1349765e-13
2.0155957e-13
1.1349765e-13
-2.0155957e-13
-5.3711015e-14
8.7080966e-14
5.371087e-14
-8.7080966e-14
-1.0512422e-14
7.6568128e-15
1.0512422e-14
-7.6569583e-15
1.8731746e-14
-4.2718844e-14
-1.8731819e-14
4.2718772e-14
3.6771357e-14
-1.7344481e-12
-3.6771375e-14
7.0107934e-14
4.631069e-14
-7.5481055e-14
-4.6310654e-14
7.5481055e-14
4.9759439e-14
-7.3875699e-14
-4.9759439e-14
7.3875771e-14
4.9298665e-14
-6.9946212e-14
-4.9298665e-14
6.9946358e-14
4.6458493e-14
-6.4313305e-14
-4.6458493e-14
6.431345e-14
4.2402296e-14
-5.659005e-14
-4.2402587e-14
5.6590341e-14
3.633281e-14
-4.8196891e-14
-3.6333101e-14
4.8196891e-14
2.9773668e-14
-4.0071309e-14
-2.9773668e-14
4.0071018e-14
2.4180035e-14
-3.266925e-14
-2.4179453e-14
3.2670414e-14
1.9664592e-14
-2.6202533e-14
-1.9664592e-14
2.6203115e-14
1.5964842e-14
-2.0726754e-14
-1.5964842e-14
2.0727336e-14
1.2870555e-14
-1.6205494e-14
-1.2871137e-14
1.6206076e-14
1.0257172e-14
-1.2547881e-14
-1.0257172e-14
1.2549045e-14
8.095473e-15
-9.6405189e-15
-8.095473e-15
9.6405189e-15
6.3417987e-15
-7.3583024e-15
-6.3406347e-15
7.3594665e-15
4.9345092e-15
-5.5913524e-15
-4.9356733e-15
5.5913524e-15
3.823752e-15
-4.2339407e-15
-3.823752e-15
4.2339407e-15
2.9518687e-15
-3.1998852e-15
-2.9518687e-15
3.1998852e-15
2.2738883e-15
-2.4172926e-15
-2.2715603e-15
2.4172926e-15
1.749904e-15
-1.82769e-15
-1.749904e-15
1.82769e-15
1.3469546e-15
-1.3824088e-15
-1.3469546e-15
1.3847368e-15
1.0378072e-15
-1.0521875e-15
-1.0378072e-15
1.0521875e-15
8.008389e-16
-8.0249772e-16
-7.9618277e-16
8.0249772e-16
6.1941514e-16
-6.1479084e-16
-6.1941514e-16
6.1479084e-16
4.8024397e-16
-4.6854137e-16
-4.8024397e-16
4.731975e-16
3.7337992e-16
-3.6510312e-16
-3.7337992e-16
3.6510312e-16
2.9099734e-16
-2.8240827e-16
-2.9099734e-16
2.8240827e-16
2.2713836e-16
-2.197755e-16
-2.2713836e-16
2.197755e-16
1.7763442e-16
-1.724394e-16
-1.7763442e-16
1.724394e-16
1.392033e-16
-1.3634296e-16
-1.392033e-16
1.3634296e-16
1.0902599e-16
-1.0943439e-16
-1.0902599e-16
1.0943439e-16
8.4893932e-17
-7.8663101e-17
-8.4893932e-17
8.7975373e-17
6.4943594e-17
-6.0949678e-17
-6.4943594e-17
7.026195e-17
4.9402918e-17
-5.539279e-17
-4.9402918e-17
5.539279e-17
3.7809466e-17
-4.4238e-17
-3.7809466e-17
4.4238e-17
2.964906e-17
-3.5901012e-17
-2.964906e-17
3.5901012e-17
2.3143675e-17
-2.9216048e-17
-2.3143675e-17
2.9216048e-17
3.6392079e-17
-2.4117376e-17
-1.7767535e-17
2.4117376e-17
1.2381542e-17
-1.9483966e-17
-1.2381542e-17
1.9483966e-17
8.7581556e-18
3.9060813e-18
-8.7581556e-18
1.4718462e-17
6.3800278e-18
7.0432809e-18
-6.3800278e-18
1.1581263e-17
2.3700837e-17
-8.8314943e-18
-5.0762939e-18
8.8314943e-18
3.8507345e-18
1.1530773e-17
-3.8507345e-18
7.0937704e-18
3.0462629e-18
-6.2002309e-18
-3.0462629e-18
6.2002309e-18
3.2127765e-18
-6.0946795e-18
-3.2127765e-18
6.0946795e-18
8.0209104e-13
1.4176453e-12
-8.0209045e-13
-1.4176453e-12
1.9322503e-12
-1.0955337e-10
-1.9322503e-12
2.7598738e-10
2.1554526e-12
-3.0546994e-10
-2.1554526e-12
3.0546994e-10
1.985133e-12
-1.3010328e-10
-1.6841915e-10
1.3010328e-10
1.756517e-12
-1.0533906e-10
-1.7565165e-12
2.7177308e-10
1.4993331e-12
-7.8096154e-11
-1.4993331e-12
7.8096155e-11
1.7895783e-11
-1.0515323e-10
-1.7895783e-11
1.0515323e-10
1.0163505e-12
-7.1487575e-11
-1.0163505e-12
7.1487576e-11
8.083046e-13
-4.2895629e-11
-8.083046e-13
5.9539031e-11
6.3088128e-13
-3.4660483e-11
-6.3088128e-13
3.4660483e-11
1.7126309e-11
-2.9041825e-11
-4.8290746e-13
2.9041825e-11
3.6330232e-13
-8.58111e-12
-3.6330247e-13
8.58111e-12
2.6837868e-13
-5.9687608e-12
-2.6837868e-13
5.9687608e-12
1.9369291e-13
-2.0803191e-11
-1.9369277e-13
4.1597895e-12
1.3515025e-13
-2.8991058e-12
-1.3515017e-13
1.9542507e-11
8.971093e-14
-3.6859273e-12
-8.9710912e-14
3.6859272e-12
5.4990334e-14
-3.0749315e-12
-5.4990298e-14
3.0749315e-12
2.8864651e-14
-9.8071093e-13
-2.8864578e-14
9.8071093e-13
9.6018945e-15
-6.7739088e-13
-9.601749e-15
6.7739073e-13
-4.0279695e-15
-4.6012657e-13
4.0279695e-15
4.6012657e-13
-1.2921288e-14
-3.0877606e-13
1.2921288e-14
3.0877606e-13
-1.2902897e-14
-2.0564049e-13
1.2903188e-14
2.0564049e-13
-7.751689e-15
-1.3613345e-13
7.7513979e-15
1.3613345e-13
-3.4660711e-15
-8.9598104e-14
3.4660711e-15
8.9598104e-14
-1.1661199e-15
-5.8626731e-14
1.1661199e-15
5.8626149e-14
-5.3803124e-16
-3.8142399e-14
5.3861326e-16
3.8142399e-14
-5.9453559e-16
-2.4667584e-14
5.9453559e-16
2.4667002e-14
-8.7507676e-16
-1.5846013e-14
8.7507676e-16
1.5846013e-14
-1.1426178e-15
-1.0097457e-14
1.1426178e-15
1.0097457e-14
-1.281705e-15
-6.3684045e-15
1.281705e-15
6.3684045e-15
-1.2859724e-15
-3.9624444e-15
1.2859724e-15
3.9624444e-15
-1.1970267e-15
-2.4185309e-15
1.1970267e-15
2.4185309e-15
-1.059211e-15
-1.4365918e-15
1.0615391e-15
1.4365918e-15
-9.0712863e-16
-8.1644372e-16
9.0712863e-16
8.1644372e-16
-7.5891581e-16
-4.3064302e-16
7.5891581e-16
4.3064302e-16
-6.2510286e-16
-1.9550471e-16
6.2510286e-16
1.9550471e-16
-5.0985995e-16
-5.6203269e-17
5.0985995e-16
5.8531337e-17
-4.1314065e-16
2.2283351e-17
4.1314065e-16
-2.2283351e-17
-3.3377726e-16
6.286063e-17
3.3377726e-16
-6.286063e-17
-2.6865612e-16
8.1184848e-17
2.6865612e-16
-8.1184848e-17
-2.1539191e-16
8.5608498e-17
2.1539191e-16
-8.5608498e-17
-1.7201438e-16
8.3406409e-17
1.7201438e-16
-8.3406409e-17
-1.3812409e-16
7.6456857e-17
1.3812409e-16
-7.6456857e-17
-1.1062004e-16
6.7624487e-17
1.1062004e-16
-6.7624487e-17
-8.8343125e-17
5.7796459e-17
8.8343125e-17
-5.7796459e-17
-7.0942882e-17
4.7798068e-17
7.0942882e-17
-4.7798068e-17
-5.7046707e-17
3.8291041e-17
5.7046707e-17
-3.8291041e-17
-4.5815373e-17
2.9740144e-17
4.5815373e-17
-2.9740144e-17
-3.7480724e-17
2.4102841e-17
3.7480724e-17
-2.4102841e-17
-3.0556586e-17
1.9823223e-17
3.0556586e-17
-1.9823223e-17
-2.6040782e-17
1.5713648e-17
2.6040782e-17
-1.5713648e-17
-2.3544421e-17
1.2586531e-17
2.3544421e-17
-1.2586531e-17
-2.3511669e-17
9.7038637e-18
2.3511669e-17
-9.7038637e-18
-2.3275804e-17
7.6338689e-18
2.3275804e-17
-7.6338689e-18
-2.2963557e-17
5.2692576e-18
2.2963557e-17
-5.2692576e-18
-1.9726204e-17
4.0786719e-18
1.9726204e-17
-4.0786719e-18
-3.6814661e-17
4.0043491e-18
1.8190118e-17
-4.0043491e-18
-1.689333e-17
3.1443659e-18
1.689333e-17
-3.1443659e-18
-1.4099522e-17
3.378039e-18
1.4099522e-17
-3.378039e-18
-9.0789607e-18
5.0502825e-18
9.0789607e-18
-5.0502825e-18
5.8745332e-13
3.0752695e-13
-5.8745332e-13
-3.0752695e-13
8.8289816e-13
-5.6217832e-13
-8.8289816e-13
5.621789e-13
9.1347009e-13
-1.4810116e-12
-9.1347009e-13
1.4810122e-12
9.0909172e-13
-2.0163764e-12
-9.0909172e-13
2.0163764e-12
8.7140307e-13
-2.1301595e-12
-8.7140307e-13
2.1301595e-12
7.8663057e-13
-1.9477854e-12
-7.8663057e-13
1.9477848e-12
6.673538e-13
-1.6251506e-12
-1.7310756e-11
1.6251518e-12
5.3485285e-13
-1.2495754e-12
-5.3485285e-13
1.2495751e-12
4.0576668e-13
-1.7528359e-11
-4.0576668e-13
1.7528359e-11
2.8994202e-13
-5.7286272e-13
-2.8994202e-13
5.7286272e-13
1.9197488e-13
-3.5592182e-13
-1.9197488e-13
3.5592153e-13
1.1349765e-13
-2.0155957e-13
-1.1349765e-13
2.0155957e-13
5.371087e-14
-8.7080965e-14
-5.371087e-14
8.7080965e-14
1.0512422e-14
-7.6569583e-15
-1.0512422e-14
7.6569583e-15
-1.8731819e-14
4.2718772e-14
1.8731819e-14
-4.2718772e-14
-3.6771357e-14
1.7344481e-12
3.6771357e-14
-7.0107915e-14
-4.6310727e-14
7.5481055e-14
4.631069e-14
-7.5481091e-14
-4.9759439e-14
7.3875626e-14
4.9759439e-14
-7.3875771e-14
-4.9298665e-14
6.9946358e-14
4.9298665e-14
-6.9946358e-14
-4.6458493e-14
6.431345e-14
4.6458493e-14
-6.431345e-14
-4.2402587e-14
5.6590341e-14
4.2402587e-14
-5.6590341e-14
-3.6333101e-14
4.8196891e-14
3.6333101e-14
-4.8196891e-14
-2.9773668e-14
4.0071309e-14
2.9773668e-14
-4.0071018e-14
-2.4179453e-14
3.2669832e-14
2.4179453e-14
-3.2670414e-14
-1.9664592e-14
2.6203115e-14
1.9664592e-14
-2.6203115e-14
-1.5964842e-14
2.0726754e-14
1.5964842e-14
-2.0727336e-14
-1.2871137e-14
1.6206076e-14
1.2871137e-14
-1.6206076e-14
-1.0257172e-14
1.2547881e-14
1.0257172e-14
-1.2549045e-14
-8.095473e-15
9.6405189e-15
8.095473e-15
-9.6405189e-15
-6.3406348e-15
7.3594665e-15
6.3406348e-15
-7.3594665e-15
-4.9356733e-15
5.5913524e-15
4.9356733e-15
-5.5913524e-15
-3.823752e-15
4.2339407e-15
3.823752e-15
-4.2339407e-15
-2.9518687e-15
3.1998852e-15
2.9518687e-15
-3.1998852e-15
-2.2738883e-15
2.4172926e-15
2.2738883e-15
-2.4172926e-15
-1.749904e-15
1.82769e-15
1.749904e-15
-1.82769e-15
-1.3469546e-15
1.3847367e-15
1.3469546e-15
-1.3847367e-15
-1.0378072e-15
1.0521875e-15
1.0378072e-15
-1.0545156e-15
-8.008389e-16
8.0249772e-16
8.008389e-16
-8.0249772e-16
-6.1941514e-16
6.1479084e-16
6.1941514e-16
-6.1479084e-16
-4.8024397e-16
4.731975e-16
4.8024397e-16
-4.731975e-16
-3.7337992e-16
3.6510312e-16
3.7337992e-16
-3.6510312e-16
-2.9099733e-16
2.8240827e-16
2.9099733e-16
-2.8240827e-16
-2.2713834e-16
2.197755e-16
2.2713834e-16
-2.197755e-16
-1.7763442e-16
1.724394e-16
1.7763442e-16
-1.724394e-16
-1.392033e-16
1.3634296e-16
1.392033e-16
-1.3634296e-16
-1.0902599e-16
1.0943439e-16
1.0902599e-16
-1.0943439e-16
-8.489393e-17
8.7975373e-17
8.489393e-17
-8.7975373e-17
-6.4943593e-17
7.0261952e-17
6.4943593e-17
-7.0261952e-17
-4.9402917e-17
5.5392792e-17
4.9402917e-17
-5.5392792e-17
-3.7809464e-17
4.4237998e-17
3.7809464e-17
-4.4237998e-17
-2.964906e-17
3.5901012e-17
2.964906e-17
-3.5901012e-17
-2.3143673e-17
2.9216048e-17
2.3143673e-17
-2.9216048e-17
-1.7767532e-17
2.4117377e-17
1.7767532e-17
-2.4117377e-17
-1.2381539e-17
1.9483966e-17
1.2381539e-17
-1.9483966e-17
-8.758154e-18
1.4718462e-17
8.758154e-18
-1.4718462e-17
-6.3800259e-18
1.1581263e-17
6.3800259e-18
7.0432809e-18
1.3548252e-17
8.8314936e-18
5.0762919e-18
-8.8314936e-18
-3.8507334e-18
7.0937712e-18
3.8507334e-18
-7.0937712e-18
-3.0462622e-18
6.2002314e-18
3.0462622e-18
-6.2002314e-18
-3.2127763e-18
6.0946796e-18
3.2127763e-18
-6.0946796e-18
-8.0209045e-13
-1.4176453e-12
8.0209045e-13
1.4176453e-12
-1.9322503e-12
1.0955337e-10
1.9322503e-12
-2.7598738e-10
-2.1554526e-12
3.0546994e-10
2.1554521e-12
-3.0546994e-10
-1.985133e-12
1.3010328e-10
1.6841915e-10
-1.3010328e-10
-1.756517e-12
1.0533906e-10
1.7565165e-12
-2.7177308e-10
-1.4993337e-12
7.8096154e-11
1.4993331e-12
-7.8096153e-11
-1.7895783e-11
1.0515323e-10
1.7895784e-11
-1.0515323e-10
-1.0163508e-12
7.1487576e-11
1.0163505e-12
-7.1487576e-11
-8.083046e-13
4.2895629e-11
8.083046e-13
-5.9539031e-11
-6.3088128e-13
3.4660483e-11
6.3088128e-13
-3.4660483e-11
-1.7126309e-11
2.9041825e-11
4.8290746e-13
-2.9041825e-11
-3.6330232e-13
8.58111e-12
3.6330247e-13
-8.5811101e-12
-2.6837868e-13
5.9687608e-12
2.6837868e-13
-5.968761e-12
-1.9369291e-13
2.0803191e-11
1.9369277e-13
-4.1597895e-12
-1.3515025e-13
2.8991058e-12
1.3515017e-13
-1.9542507e-11
-8.971093e-14
3.6859273e-12
8.971093e-14
-3.6859273e-12
-5.4990298e-14
3.0749315e-12
5.4990261e-14
-3.0749315e-12
-2.8864578e-14
9.8071101e-13
2.8864651e-14
-9.8071093e-13
-9.6018945e-15
6.7739073e-13
9.601749e-15
-6.7739059e-13
4.028115e-15
4.6012657e-13
-4.0279695e-15
-4.6012657e-13
1.2921579e-14
3.0877606e-13
-1.2921288e-14
-3.0877606e-13
1.2903188e-14
2.0564049e-13
-1.2903188e-14
-2.0564049e-13
7.751689e-15
1.3613345e-13
-7.7513979e-15
-1.3613345e-13
3.4654891e-15
8.9598104e-14
-3.4660711e-15
-8.9598104e-14
1.1661199e-15
5.8626149e-14
-1.1661199e-15
-5.8626149e-14
5.3861326e-16
3.8142981e-14
-5.3861326e-16
-3.8142399e-14
5.951176e-16
2.4667002e-14
-5.9395357e-16
-2.4667002e-14
8.7507676e-16
1.5846013e-14
-8.7507676e-16
-1.5846013e-14
1.1426178e-15
1.0097457e-14
-1.1426178e-15
-1.0097457e-14
1.281705e-15
6.3684045e-15
-1.281705e-15
-6.3684045e-15
1.2871364e-15
3.9624444e-15
-1.2859724e-15
-3.9612803e-15
1.1970267e-15
2.4185309e-15
-1.1970267e-15
-2.4185309e-15
1.059211e-15
1.4365918e-15
-1.059211e-15
-1.4342638e-15
9.0712863e-16
8.1644539e-16
-9.0712863e-16
-8.1644539e-16
7.5891581e-16
4.3064302e-16
-7.5658774e-16
-4.3064302e-16
6.2510286e-16
1.9550488e-16
-6.2510286e-16
-1.9317681e-16
5.0985995e-16
5.6203269e-17
-5.0753188e-16
-5.3875201e-17
4.1314065e-16
-2.2283351e-17
-4.1314065e-16
2.2283351e-17
3.3377726e-16
-6.286063e-17
-3.3377726e-16
6.286063e-17
2.6865612e-16
-8.1185015e-17
-2.6865612e-16
8.584115e-17
2.2004805e-16
-8.5608498e-17
-2.1539191e-16
8.5608498e-17
1.7201438e-16
-8.3406409e-17
-1.7201438e-16
8.8062545e-17
1.3812409e-16
-7.6456857e-17
-1.3812409e-16
8.1112993e-17
1.1062004e-16
-6.7624504e-17
-1.1062004e-16
6.7624504e-17
8.8343125e-17
-5.7796459e-17
-8.8343125e-17
6.710873e-17
7.0942882e-17
-4.7798068e-17
-6.163061e-17
4.7798068e-17
5.7046707e-17
-3.8291041e-17
-5.7046707e-17
4.7603313e-17
4.5815373e-17
-2.9740144e-17
-4.5815373e-17
2.9740144e-17
4.6792996e-17
-2.4102841e-17
-3.7480724e-17
2.4102841e-17
3.0556586e-17
-1.9823223e-17
-2.1244314e-17
2.9135495e-17
2.6040782e-17
-1.5713646e-17
-2.6040782e-17
1.5713646e-17
2.3544421e-17
-1.2586532e-17
-2.3544421e-17
1.2586532e-17
2.3511671e-17
-9.703862e-18
-2.3511671e-17
2.8328406e-17
2.3275805e-17
-7.6338689e-18
-2.3275805e-17
7.6338689e-18
2.2963557e-17
-5.2692576e-18
-2.2963557e-17
5.2692576e-18
1.9726204e-17
-4.0786702e-18
-1.1016602e-18
4.0786702e-18
1.8190119e-17
-4.0043508e-18
-1.8190119e-17
4.0043508e-18
1.6893332e-17
-3.1443664e-18
-1.6893332e-17
3.1443664e-18
1.4099522e-17
-3.3780388e-18
-1.4099522e-17
2.2002582e-17
9.0789609e-18
-5.0502824e-18
9.5455827e-18
2.3674826e-17
)
;

boundaryField
{
    movingWall
    {
        type            calculated;
        value           nonuniform List<scalar> 
16
(
3.2127765e-18
-9.0789607e-18
-3.2127763e-18
9.0789609e-18
-6.0946795e-18
5.0502825e-18
6.0946796e-18
-5.0502824e-18
-3.2127765e-18
9.0789607e-18
3.2127763e-18
9.5455827e-18
6.0946795e-18
-5.0502825e-18
-6.0946796e-18
2.3674826e-17
)
;
    }
    CPLReceiveMD
    {
        type            calculated;
        value           nonuniform List<scalar> 
16
(
-5.874539e-13
8.0209104e-13
5.8745332e-13
-8.0209045e-13
-3.0752695e-13
1.4176453e-12
3.0752695e-13
-1.4176453e-12
5.8745332e-13
-8.0209045e-13
-5.8745332e-13
8.0209045e-13
3.0752695e-13
-1.4176453e-12
-3.0752695e-13
1.4176453e-12
)
;
    }
    streamwiseIn
    {
        type            cyclic;
    }
    streamwiseOut
    {
        type            cyclic;
    }
    front
    {
        type            cyclic;
    }
    back
    {
        type            cyclic;
    }
}


// ************************************************************************* //
