/*--------------------------------*- C++ -*----------------------------------*\
| =========                 |                                                 |
| \\      /  F ield         | OpenFOAM: The Open Source CFD Toolbox           |
|  \\    /   O peration     | Version:  3.0.1                                 |
|   \\  /    A nd           | Web:      www.OpenFOAM.org                      |
|    \\/     M anipulation  |                                                 |
\*---------------------------------------------------------------------------*/
FoamFile
{
    version     2.0;
    format      ascii;
    class       volScalarField;
    location    "225";
    object      p;
}
// * * * * * * * * * * * * * * * * * * * * * * * * * * * * * * * * * * * * * //

dimensions      [0 2 -2 0 0 0 0];

internalField   nonuniform List<scalar> 
480
(
5.5291189e-09
9.5370546e-09
-4.7556487e-10
5.1213983e-09
1.0596813e-08
1.1275921e-08
-7.726535e-09
-5.7036897e-10
1.1736893e-08
1.0910123e-08
-1.2709686e-08
-6.0505253e-09
9.3539897e-09
8.7325829e-09
-1.6211056e-08
-1.1264607e-08
4.3673162e-09
4.4314859e-09
-1.9157812e-08
-1.591124e-08
-2.4597366e-09
-1.9122515e-09
-2.1804328e-08
-1.984766e-08
-9.9121254e-09
-9.2057398e-09
-2.4785374e-08
-2.3727918e-08
-1.7610894e-08
-1.6764889e-08
-2.8077471e-08
-2.7699807e-08
-2.5155783e-08
-2.4198654e-08
-3.1492322e-08
-3.1645336e-08
-3.224842e-08
-3.1239009e-08
-3.486647e-08
-3.5405757e-08
-3.867453e-08
-3.7679185e-08
-3.8025915e-08
-3.880872e-08
-4.42963e-08
-4.336524e-08
-4.0779926e-08
-4.1670292e-08
-4.9020164e-08
-4.8195695e-08
-4.2943869e-08
-4.3840294e-08
-5.2777577e-08
-5.2115222e-08
-4.436743e-08
-4.5203349e-08
-5.5555877e-08
-5.5112876e-08
-4.4961832e-08
-4.5686546e-08
-5.7392514e-08
-5.7217775e-08
-4.4668111e-08
-4.5261732e-08
-5.8357607e-08
-5.8493795e-08
-4.3496854e-08
-4.394449e-08
-5.8545405e-08
-5.9032555e-08
-4.1507985e-08
-4.1789289e-08
-5.8068805e-08
-5.8946637e-08
-3.8795885e-08
-3.8882659e-08
-5.7054299e-08
-5.8363092e-08
-3.5478846e-08
-3.5335457e-08
-5.5636479e-08
-5.7417074e-08
-3.1689983e-08
-3.1274877e-08
-5.395237e-08
-5.6245808e-08
-2.756942e-08
-2.6836693e-08
-5.2135583e-08
-5.4982949e-08
-2.3257616e-08
-2.2158112e-08
-5.0310858e-08
-5.3753244e-08
-1.8889727e-08
-1.737156e-08
-4.8589375e-08
-5.2668077e-08
-1.4590982e-08
-1.2599594e-08
-4.7065094e-08
-5.1822134e-08
-1.0473098e-08
-7.9510469e-09
-4.5812231e-08
-5.1290956e-08
-6.6317015e-09
-3.5184157e-09
-4.4883919e-08
-5.1129514e-08
-3.1447536e-09
6.2355537e-10
-4.4311968e-08
-5.1371763e-08
-7.1910144e-11
4.4182227e-09
-4.4107644e-08
-5.2031093e-08
2.5452794e-09
7.8264745e-09
-4.4263278e-08
-5.3101552e-08
4.6824613e-09
1.0825422e-08
-4.4754546e-08
-5.4559692e-08
6.3310024e-09
1.3406536e-08
-4.5543226e-08
-5.6366886e-08
7.4961043e-09
1.5573409e-08
-4.6580237e-08
-5.8471974e-08
8.1946569e-09
1.733931e-08
-4.7808805e-08
-6.0814087e-08
8.4529724e-09
1.8724689e-08
-4.9167602e-08
-6.3325341e-08
8.3044012e-09
1.9754754e-08
-5.0593871e-08
-6.5934015e-08
7.7873593e-09
2.0457239e-08
-5.2025853e-08
-6.8567007e-08
6.9431871e-09
2.0860445e-08
-5.340536e-08
-7.1152328e-08
5.8143819e-09
2.0991613e-08
-5.4679758e-08
-7.3621339e-08
4.4430455e-09
2.0875673e-08
-5.5803543e-08
-7.5910701e-08
2.8697082e-09
2.0534406e-08
-5.6739487e-08
-7.796403e-08
1.1323654e-09
1.9986043e-08
-5.7459396e-08
-7.9733273e-08
-7.341352e-10
1.9245247e-08
-5.7944433e-08
-8.1179814e-08
-2.6983938e-09
1.8323534e-08
-5.8185135e-08
-8.2275352e-08
-4.7324369e-09
1.7230164e-08
-5.818114e-08
-8.3002603e-08
-6.8113717e-09
1.5973397e-08
-5.7940667e-08
-8.3355915e-08
-8.912722e-09
1.4562287e-08
-5.747987e-08
-8.3341908e-08
-1.1015477e-08
1.3008816e-08
-5.6822118e-08
-8.2980289e-08
-1.3098934e-08
1.1330514e-08
-5.5997317e-08
-8.230507e-08
-1.5141445e-08
9.5534847e-09
-5.5041328e-08
-8.136636e-08
-1.7119304e-08
7.7157177e-09
-5.3995576e-08
-8.0232976e-08
-1.9005973e-08
5.8706104e-09
-5.2906873e-08
-7.8996282e-08
-2.07718e-08
4.0908764e-09
-5.1827434e-08
-7.7775676e-08
-2.238414e-08
2.4733492e-09
-5.0814371e-08
-7.6722557e-08
-2.3807806e-08
1.142197e-09
-4.992725e-08
-7.6010456e-08
-2.500593e-08
2.3992389e-10
-4.9226754e-08
-7.5815292e-08
-2.5936996e-08
-8.7185805e-11
-4.8797086e-08
-7.6408185e-08
-2.6524184e-08
4.1464477e-10
-4.8805688e-08
-7.8470629e-08
-2.65633e-08
2.4201624e-09
-4.9416357e-08
-8.2625969e-08
-2.5804074e-08
6.5478774e-09
6.1038204e-09
1.2620707e-08
5.1276583e-10
2.6497233e-09
9.9567413e-09
1.3233726e-08
-5.158119e-09
-1.1663644e-09
1.122239e-08
1.1371914e-08
-9.4446902e-09
-4.9172032e-09
1.039702e-08
8.899444e-09
-1.3527479e-08
-9.7282534e-09
6.7361822e-09
5.0372706e-09
-1.7157897e-08
-1.4698244e-08
6.3631572e-10
-5.3309457e-10
-2.0275622e-08
-1.9230699e-08
-6.7553558e-09
-7.1319845e-09
-2.3442494e-08
-2.3559496e-08
-1.4664908e-08
-1.430768e-08
-2.6748371e-08
-2.7699867e-08
-2.2600277e-08
-2.1682122e-08
-3.0158639e-08
-3.1586995e-08
-3.0138378e-08
-2.8886894e-08
-3.3567931e-08
-3.5161325e-08
-3.6959054e-08
-3.5603505e-08
-3.6814839e-08
-3.8312149e-08
-4.2862001e-08
-4.1587536e-08
-3.9699731e-08
-4.0941072e-08
-4.7754157e-08
-4.6680405e-08
-4.2022536e-08
-4.2928852e-08
-5.1626025e-08
-5.0806979e-08
-4.3618747e-08
-4.4164905e-08
-5.4514581e-08
-5.3957091e-08
-4.4375992e-08
-4.4568415e-08
-5.6465253e-08
-5.6169981e-08
-4.4260802e-08
-4.4099953e-08
-5.7547529e-08
-5.7521717e-08
-4.3281528e-08
-4.2764335e-08
-5.785298e-08
-5.81153e-08
-4.1490596e-08
-4.0607809e-08
-5.7491318e-08
-5.8072739e-08
-3.8976725e-08
-3.7711517e-08
-5.6586137e-08
-5.7528164e-08
-3.5854086e-08
-3.4183149e-08
-5.5269752e-08
-5.6621631e-08
-3.2252796e-08
-3.0148194e-08
-5.3677272e-08
-5.5493345e-08
-2.8310735e-08
-2.5741544e-08
-5.194075e-08
-5.4278387e-08
-2.4166577e-08
-2.1099935e-08
-5.0183715e-08
-5.3102102e-08
-1.9953967e-08
-1.6355464e-08
-4.851648e-08
-5.2076123e-08
-1.5796799e-08
-1.1630349e-08
-4.70325e-08
-5.1295005e-08
-1.1805573e-08
-7.0329726e-09
-4.5805891e-08
-5.0833892e-08
-8.0748244e-09
-2.6552103e-09
-4.4890134e-08
-5.0747189e-08
-4.6815805e-09
1.4290259e-09
-4.4317882e-08
-5.1068189e-08
-1.6847604e-09
5.1641478e-09
-4.4101735e-08
-5.1809586e-08
8.7458745e-10
8.5123098e-09
-4.4235824e-08
-5.2964751e-08
2.9723527e-09
1.1452064e-08
-4.4698023e-08
-5.450962e-08
4.5998822e-09
1.3976439e-08
-4.5452601e-08
-5.6405043e-08
5.762102e-09
1.6090637e-08
-4.6453156e-08
-5.8599445e-08
6.4753868e-09
1.7809513e-08
-4.7645655e-08
-6.1031658e-08
6.7653097e-09
1.9155009e-08
-4.8971456e-08
-6.3633943e-08
6.6644863e-09
2.0153672e-08
-5.0370023e-08
-6.6334479e-08
6.2102151e-09
2.0834366e-08
-5.1781853e-08
-6.906024e-08
5.4426129e-09
2.1226269e-08
-5.3150596e-08
-7.1739435e-08
4.4028391e-09
2.1357215e-08
-5.4425001e-08
-7.4303693e-08
3.1315418e-09
2.1252434e-08
-5.5560459e-08
-7.6689973e-08
1.6676847e-09
2.0933698e-08
-5.6520127e-08
-7.8842184e-08
4.7579706e-11
2.0418871e-08
-5.7275639e-08
-8.0712505e-08
-1.6957241e-09
1.9721931e-08
-5.7807484e-08
-8.2262447e-08
-3.5327372e-09
1.8853421e-08
-5.8105001e-08
-8.3463669e-08
-5.4375014e-09
1.78213e-08
-5.8166112e-08
-8.4298615e-08
-7.3872306e-09
1.6632203e-08
-5.799685e-08
-8.4761055e-08
-9.3616264e-09
1.5293267e-08
-5.7610748e-08
-8.4856648e-08
-1.134191e-08
1.3814289e-08
-5.7028195e-08
-8.4603704e-08
-1.3309645e-08
1.2210403e-08
-5.6275852e-08
-8.4034372e-08
-1.5245531e-08
1.0505172e-08
-5.5386227e-08
-8.3196475e-08
-1.7128357e-08
8.7340137e-09
-5.4397494e-08
-8.2156242e-08
-1.8934412e-08
6.9478863e-09
-5.3353626e-08
-8.1002379e-08
-2.0637492e-08
5.2174696e-09
-5.2304803e-08
-7.9851836e-08
-2.2209388e-08
3.6383452e-09
-5.1307381e-08
-7.8853944e-08
-2.3620606e-08
2.3346537e-09
-5.0421863e-08
-7.8180432e-08
-2.4840783e-08
1.4504364e-09
-4.9711662e-08
-7.8005879e-08
-2.5832774e-08
1.1347535e-09
-4.9265212e-08
-7.8601568e-08
-2.6516017e-08
1.6437471e-09
-4.925386e-08
-8.0625548e-08
-2.6694422e-08
3.6335603e-09
-4.9838689e-08
-8.4636473e-08
-2.6167962e-08
7.6500775e-09
)
;

boundaryField
{
    movingWall
    {
        type            zeroGradient;
    }
    CPLReceiveMD
    {
        type            zeroGradient;
    }
    streamwiseIn
    {
        type            cyclic;
    }
    streamwiseOut
    {
        type            cyclic;
    }
    front
    {
        type            cyclic;
    }
    back
    {
        type            cyclic;
    }
    procBoundary1to0
    {
        type            processor;
        value           nonuniform List<scalar> 
240
(
5.9411263e-09
1.2289945e-08
-5.7723706e-10
2.7066476e-09
9.621214e-09
1.2961843e-08
-6.3674351e-09
-1.1650835e-09
1.0747881e-08
1.1149494e-08
-1.0670465e-08
-4.9785732e-09
9.8991301e-09
8.7273692e-09
-1.465699e-08
-9.8434274e-09
6.3267255e-09
4.8964429e-09
-1.80896e-08
-1.4867009e-08
3.5858551e-10
-6.5909215e-10
-2.0969356e-08
-1.9420835e-08
-6.8892404e-09
-7.2499604e-09
-2.3921004e-08
-2.3772731e-08
-1.4672563e-08
-1.4412635e-08
-2.7057547e-08
-2.7932114e-08
-2.2514362e-08
-2.1776375e-08
-3.0331747e-08
-3.1832608e-08
-2.99941e-08
-2.8974551e-08
-3.3641111e-08
-3.5399816e-08
-3.6788248e-08
-3.5685285e-08
-3.6821975e-08
-3.8540875e-08
-4.2687057e-08
-4.1663091e-08
-3.9668527e-08
-4.1151575e-08
-4.7590603e-08
-4.6750334e-08
-4.1973715e-08
-4.3115031e-08
-5.1484261e-08
-5.0870219e-08
-4.3566352e-08
-4.432367e-08
-5.4399648e-08
-5.4011851e-08
-4.4328587e-08
-4.4699241e-08
-5.6377458e-08
-5.6215311e-08
-4.4222523e-08
-4.420428e-08
-5.7484469e-08
-5.7557659e-08
-4.3253588e-08
-4.2844918e-08
-5.7810772e-08
-5.8142728e-08
-4.147229e-08
-4.0668114e-08
-5.7465563e-08
-5.8092975e-08
-3.8966413e-08
-3.7755229e-08
-5.6572553e-08
-5.7542626e-08
-3.5849824e-08
-3.4213817e-08
-5.5264587e-08
-5.663164e-08
-3.225271e-08
-3.0169004e-08
-5.3677468e-08
-5.5500089e-08
-2.8313222e-08
-2.57552e-08
-5.1943968e-08
-5.4282835e-08
-2.4170381e-08
-2.1108619e-08
-5.0188279e-08
-5.3105007e-08
-1.9958184e-08
-1.6360854e-08
-4.8521276e-08
-5.2078046e-08
-1.5800834e-08
-1.1633675e-08
-4.7036858e-08
-5.129634e-08
-1.1809082e-08
-7.0350897e-09
-4.580947e-08
-5.08349e-08
-8.0776531e-09
-2.6566794e-09
-4.4892821e-08
-5.0748029e-08
-4.6837032e-09
1.4278636e-09
-4.4319709e-08
-5.1068949e-08
-1.686233e-09
5.1631055e-09
-4.4102817e-08
-5.1810304e-08
8.7366585e-10
8.5113021e-09
-4.4236309e-08
-5.2965437e-08
2.9718672e-09
1.1451067e-08
-4.4698066e-08
-5.4510269e-08
4.59972e-09
1.3975461e-08
-4.5452344e-08
-5.6405644e-08
5.7621626e-09
1.60897e-08
-4.6452716e-08
-5.8599988e-08
6.4755872e-09
1.780864e-08
-4.7645125e-08
-6.1032137e-08
6.7655854e-09
1.915422e-08
-4.8970904e-08
-6.3634354e-08
6.6647904e-09
2.0152978e-08
-5.0369493e-08
-6.6334824e-08
6.2105156e-09
2.0833773e-08
-5.1781373e-08
-6.9060522e-08
5.4428899e-09
2.1225774e-08
-5.315018e-08
-7.1739659e-08
4.403082e-09
2.1356813e-08
-5.4424653e-08
-7.4303867e-08
3.1317465e-09
2.1252115e-08
-5.5560177e-08
-7.6690105e-08
1.6678515e-09
2.0933451e-08
-5.6519905e-08
-7.8842281e-08
4.7711603e-11
2.0418684e-08
-5.7275469e-08
-8.0712574e-08
-1.6956227e-09
1.9721793e-08
-5.7807357e-08
-8.2262494e-08
-3.5326614e-09
1.8853323e-08
-5.8104909e-08
-8.34637e-08
-5.4374465e-09
1.7821232e-08
-5.8166048e-08
-8.4298634e-08
-7.3871919e-09
1.6632158e-08
-5.7996807e-08
-8.4761065e-08
-9.3616001e-09
1.5293239e-08
-5.761072e-08
-8.4856652e-08
-1.1341893e-08
1.3814273e-08
-5.7028178e-08
-8.4603704e-08
-1.3309635e-08
1.2210395e-08
-5.6275843e-08
-8.403437e-08
-1.5245526e-08
1.050517e-08
-5.5386224e-08
-8.3196472e-08
-1.7128354e-08
8.7340158e-09
-5.4397494e-08
-8.2156239e-08
-1.8934411e-08
6.9478905e-09
-5.3353628e-08
-8.1002375e-08
-2.0637494e-08
5.2174749e-09
-5.2304806e-08
-7.9851832e-08
-2.220939e-08
3.638351e-09
-5.1307385e-08
-7.885394e-08
-2.3620608e-08
2.3346596e-09
-5.0421867e-08
-7.8180428e-08
-2.4840785e-08
1.4504421e-09
-4.9711666e-08
-7.8005876e-08
-2.5832777e-08
1.1347587e-09
-4.9265216e-08
-7.8601565e-08
-2.651602e-08
1.6437519e-09
-4.9253864e-08
-8.0625545e-08
-2.6694424e-08
3.6335646e-09
-4.9838694e-08
-8.4636471e-08
-2.6167965e-08
7.650082e-09
)
;
    }
    procBoundary1to0throughback
    {
        type            processorCyclic;
        value           nonuniform List<scalar> 
240
(
1.8150257e-08
2.2497724e-08
2.1260878e-08
1.6754282e-08
1.0340898e-08
2.3041076e-09
-6.2952185e-09
-1.4878701e-08
-2.3112977e-08
-3.0749747e-08
-3.7597532e-08
-4.3524057e-08
-4.845516e-08
-5.2362803e-08
-5.5243125e-08
-5.7154439e-08
-5.8176943e-08
-5.8409337e-08
-5.7967195e-08
-5.6979e-08
-5.5580976e-08
-5.3911557e-08
-5.2105535e-08
-5.0288615e-08
-4.8572751e-08
-4.7052505e-08
-4.5802554e-08
-4.4876364e-08
-4.4305987e-08
-4.4102858e-08
-4.4259422e-08
-4.4751432e-08
-4.5540713e-08
-4.6578219e-08
-4.7807197e-08
-4.9166329e-08
-5.0592872e-08
-5.202508e-08
-5.3404769e-08
-5.4679313e-08
-5.5803213e-08
-5.6739246e-08
-5.7459224e-08
-5.7944312e-08
-5.8185054e-08
-5.8181086e-08
-5.7940633e-08
-5.747985e-08
-5.6822108e-08
-5.5997312e-08
-5.5041327e-08
-5.3995577e-08
-5.2906877e-08
-5.1827438e-08
-5.0814375e-08
-4.9927254e-08
-4.9226758e-08
-4.8797089e-08
-4.880569e-08
-4.9416359e-08
1.2045399e-08
1.4197283e-08
1.4198108e-08
1.2081211e-08
7.6262387e-09
9.8338035e-10
-6.6841381e-09
-1.4639825e-08
-2.2453095e-08
-2.9841085e-08
-3.6584701e-08
-4.2525544e-08
-4.7560377e-08
-5.163732e-08
-5.4753319e-08
-5.6946553e-08
-5.8288414e-08
-5.8876415e-08
-5.8827571e-08
-5.8272154e-08
-5.7347644e-08
-5.6192924e-08
-5.4942815e-08
-5.3722948e-08
-5.2645373e-08
-5.1805267e-08
-5.1278553e-08
-5.1120498e-08
-5.1365291e-08
-5.202651e-08
-5.3098354e-08
-5.4557496e-08
-5.6365404e-08
-5.8470996e-08
-6.0813442e-08
-6.3324921e-08
-6.5933744e-08
-6.8566833e-08
-7.1152216e-08
-7.3621266e-08
-7.5910652e-08
-7.7963995e-08
-7.9733247e-08
-8.1179793e-08
-8.2275334e-08
-8.3002587e-08
-8.3355902e-08
-8.3341896e-08
-8.2980279e-08
-8.2305061e-08
-8.1366352e-08
-8.023297e-08
-7.8996277e-08
-7.7775671e-08
-7.6722553e-08
-7.6010452e-08
-7.581529e-08
-7.6408183e-08
-7.8470627e-08
-8.2625968e-08
1.622953e-09
-5.6005651e-09
-1.0689863e-08
-1.4382783e-08
-1.7525454e-08
-2.0350113e-08
-2.3492574e-08
-2.6939486e-08
-3.0515895e-08
-3.4048502e-08
-3.735683e-08
-4.0246118e-08
-4.2529189e-08
-4.4054091e-08
-4.4720785e-08
-4.4480301e-08
-4.3350491e-08
-4.1394735e-08
-3.8708986e-08
-3.5412662e-08
-3.1639865e-08
-2.7531602e-08
-2.3229109e-08
-1.8868202e-08
-1.4574664e-08
-1.0460652e-08
-6.6221402e-09
-3.1373525e-09
-6.6141081e-11
2.549802e-09
4.6860205e-09
6.3338088e-09
7.4983169e-09
8.1963977e-09
8.4543298e-09
8.3054517e-09
7.7881659e-09
6.9438011e-09
5.8148445e-09
4.4433901e-09
2.8699617e-09
1.1325493e-09
-7.3400385e-10
-2.6983016e-09
-4.7323734e-09
-6.8113293e-09
-8.9126945e-09
-1.101546e-08
-1.3098924e-08
-1.514144e-08
-1.7119302e-08
-1.9005972e-08
-2.0771801e-08
-2.2384141e-08
-2.3807808e-08
-2.5005932e-08
-2.5936998e-08
-2.6524187e-08
-2.6563302e-08
-2.5804076e-08
7.2576115e-09
1.9320755e-09
-3.0903532e-09
-8.1534828e-09
-1.2930432e-08
-1.7229609e-08
-2.1584529e-08
-2.6030805e-08
-3.0394605e-08
-3.4466316e-08
-3.8101256e-08
-4.1140309e-08
-4.3443098e-08
-4.4903801e-08
-4.5457777e-08
-4.5084366e-08
-4.3805034e-08
-4.1678472e-08
-3.8794068e-08
-3.526455e-08
-3.1218305e-08
-2.6791867e-08
-2.2122943e-08
-1.7344308e-08
-1.2578781e-08
-7.9354091e-09
-3.5068768e-09
6.3190167e-10
4.4241281e-09
7.830551e-09
1.0828158e-08
1.3408312e-08
1.5574516e-08
1.7339964e-08
1.8725047e-08
1.9754927e-08
2.0457302e-08
2.086045e-08
2.099159e-08
2.0875641e-08
2.0534374e-08
1.9986019e-08
1.9245231e-08
1.8323526e-08
1.7230162e-08
1.59734e-08
1.4562293e-08
1.3008823e-08
1.1330523e-08
9.5534935e-09
7.7157263e-09
5.8706186e-09
4.0908842e-09
2.4733566e-09
1.1422036e-09
2.3992952e-10
-8.7180905e-11
4.146491e-10
2.4201663e-09
6.5478813e-09
)
;
    }
}


// ************************************************************************* //
