/*--------------------------------*- C++ -*----------------------------------*\
| =========                 |                                                 |
| \\      /  F ield         | OpenFOAM: The Open Source CFD Toolbox           |
|  \\    /   O peration     | Version:  3.0.1                                 |
|   \\  /    A nd           | Web:      www.OpenFOAM.org                      |
|    \\/     M anipulation  |                                                 |
\*---------------------------------------------------------------------------*/
FoamFile
{
    version     2.0;
    format      ascii;
    class       surfaceScalarField;
    location    "225";
    object      phi;
}
// * * * * * * * * * * * * * * * * * * * * * * * * * * * * * * * * * * * * * //

dimensions      [0 3 -1 0 0 0 0];

internalField   nonuniform List<scalar> 
1072
(
-0.3223002
1.1130183e-07
-1.5278347e-09
-0.32230031
1.1811428e-07
-2.515789e-09
-0.3223002
-1.0348426e-07
-3.5820166e-10
-1.0253825e-07
-1.1648841e-09
-0.2467006
4.2415034e-07
3.767809e-09
-0.2467009
4.2484249e-07
-1.8629344e-09
-0.24670059
-4.1968736e-07
-2.7245129e-10
-4.0130869e-07
-8.759147e-10
-0.17545164
7.5509728e-07
6.0956185e-09
-0.17545197
7.6137989e-07
-6.0756885e-10
-0.17545164
-7.5438095e-07
-6.7427355e-11
-7.3842752e-07
-7.2185842e-10
-0.13524911
9.8161012e-07
6.2163514e-09
-0.13524936
1.0079645e-06
2.4429716e-10
-0.13524913
-9.8186866e-07
4.8600469e-10
-9.8761827e-07
-4.2160229e-11
-0.11762508
1.0138228e-06
5.2389376e-09
-0.11762514
1.0703155e-06
3.8434827e-10
-0.1176251
-1.0148818e-06
6.2570813e-10
-1.0509316e-06
4.7714106e-10
-0.11029632
8.7912275e-07
3.87631e-09
-0.11029622
9.5963782e-07
1.8439173e-10
-0.11029634
-8.8202522e-07
5.3964354e-10
-9.4100766e-07
7.735673e-10
-0.10504782
6.756593e-07
2.43787e-09
-0.10504762
7.6461463e-07
-9.3444818e-11
-0.10504782
-6.8086725e-07
4.2937388e-10
-7.4759792e-07
8.5933769e-10
-0.098200863
4.8844458e-07
1.6795393e-09
-0.098200674
5.7303577e-07
-2.9870184e-10
-0.098200859
-4.9638291e-07
3.8150217e-10
-5.5870264e-07
7.7005937e-10
-0.088873423
3.5988155e-07
1.135009e-09
-0.088873285
4.3392935e-07
-3.9560655e-10
-0.088873415
-3.7014151e-07
2.1743942e-10
-4.2294592e-07
5.4973713e-10
-0.077334787
2.9532388e-07
7.1623844e-10
-0.077334713
3.5858824e-07
-4.1025633e-10
-0.077334779
-3.0727749e-07
9.2039597e-11
-3.5129556e-07
2.870966e-10
-0.064080114
2.8165522e-07
4.0537622e-10
-0.064080093
3.3725993e-07
-3.794947e-10
-0.064080109
-2.9480964e-07
9.2740519e-12
-3.3384139e-07
1.7034103e-10
-0.049477445
3.0188652e-07
2.3118859e-10
-0.049477462
3.5422772e-07
-3.3479085e-10
-0.049477444
-3.16094e-07
-3.6712693e-11
-3.546309e-07
2.4721962e-11
-0.033706028
3.4222069e-07
1.9389834e-10
-0.033706071
3.9583163e-07
-2.9587876e-10
-0.033706031
-3.5763929e-07
-5.4635352e-11
-3.9987564e-07
-9.4747886e-11
-0.016795217
3.9376998e-07
1.5706106e-10
-0.016795276
4.5273293e-07
-2.6949535e-10
-0.016795224
-4.1044534e-07
-7.6864501e-11
-4.6012452e-07
-1.8656759e-10
0.0013248665
4.513161e-07
9.5723805e-11
0.0013247984
5.1931979e-07
-2.5553261e-10
0.0013248566
-4.6927447e-07
1.0222436e-12
-5.2966072e-07
-2.5403703e-10
0.020788677
5.1174493e-07
3.7307256e-11
0.020788602
5.9235608e-07
-2.5078563e-10
0.020788664
-5.3075824e-07
4.5548686e-11
-6.0513549e-07
-3.0182436e-10
0.041777814
5.729545e-07
-6.6242557e-12
0.041777734
6.6981937e-07
-2.5148512e-10
0.041777797
-5.9262018e-07
8.2958421e-11
-6.8442479e-07
-3.3455572e-10
0.064514531
6.3324293e-07
-3.3891565e-11
0.064514448
7.5020069e-07
-2.5427485e-10
0.06451451
-6.5303456e-07
1.2314475e-10
-7.6594043e-07
-3.5600879e-10
0.089260212
6.9104673e-07
-4.6709716e-11
0.089260128
8.3217389e-07
-2.565636e-10
0.089260187
-7.1035694e-07
1.6775381e-10
-8.4830671e-07
-3.6893726e-10
0.11631518
7.4486951e-07
-4.8571837e-11
0.11631509
9.144797e-07
-2.5659532e-10
0.11631515
-7.6305257e-07
2.1593005e-10
-9.3024904e-07
-3.7524274e-10
0.1460182
7.9328471e-07
-4.3003124e-11
0.14601811
9.9590022e-07
-2.5331935e-10
0.14601816
-8.0969847e-07
2.6618732e-10
-1.0105701e-06
-3.7621319e-10
0.17874528
8.3495315e-07
-3.3056637e-11
0.1787452
1.0752555e-06
-2.4627892e-10
0.17874524
-8.4899797e-07
3.170122e-10
-1.088145e-06
-3.7274171e-10
0.21490778
8.6863515e-07
-2.1240568e-11
0.2149077
1.1513954e-06
-2.3547909e-10
0.21490773
-8.7978747e-07
3.6703859e-10
-1.1619091e-06
-3.6547693e-10
0.25495004
8.9319617e-07
-9.5084621e-12
0.25494997
1.2231824e-06
-2.2112081e-10
0.25494999
-9.0103536e-07
4.1507544e-10
-1.2308344e-06
-3.5492715e-10
0.29934665
9.0761176e-07
6.748064e-13
0.29934658
1.2894688e-06
-2.0346519e-10
0.29934659
-9.1183926e-07
4.600944e-10
-1.293901e-06
-3.4152893e-10
0.34859937
9.1097701e-07
8.2619117e-12
0.34859931
1.3490764e-06
-1.8282662e-10
0.34859931
-9.1142734e-07
5.0121738e-10
-1.3500683e-06
-3.2569449e-10
0.40323382
9.0252291e-07
1.257158e-11
0.40323377
1.4007814e-06
-1.5956397e-10
0.40323376
-8.9916672e-07
5.3769686e-10
-1.3982525e-06
-3.0784655e-10
0.46379582
8.8164022e-07
1.3254843e-11
0.46379578
1.4433058e-06
-1.3405081e-10
0.46379575
-8.7458023e-07
5.6892058e-10
-1.4373114e-06
-2.8844166e-10
0.53084729
8.4790973e-07
1.0264511e-11
0.53084726
1.4753191e-06
-1.0665753e-10
0.53084723
-8.3737028e-07
5.9440687e-10
-1.4660387e-06
-2.6798431e-10
0.6049619
8.0113695e-07
3.8253288e-12
0.60496188
1.495447e-06
-7.773776e-11
0.60496183
-7.8744863e-07
6.1380731e-10
-1.4831692e-06
-2.4702811e-10
0.68672013
7.4138901e-07
-5.6005607e-12
0.68672012
1.5022898e-06
-4.7614524e-11
0.68672006
-7.2496944e-07
6.2690519e-10
-1.4873924e-06
-2.2616946e-10
0.77670404
6.6903098e-07
-1.7356965e-11
0.77670405
1.4944507e-06
-1.6570853e-11
0.77670397
-6.5036323e-07
6.3360942e-10
-1.4773792e-06
-2.0603152e-10
0.87549149
5.8475896e-07
-3.0641915e-11
0.87549151
1.470572e-06
1.5158371e-11
0.87549143
-5.6436882e-07
6.3394481e-10
-1.451817e-06
-1.8724261e-10
0.98365
4.896268e-07
-4.4560195e-11
0.98365004
1.4293829e-06
4.7387047e-11
0.98364995
-4.6806019e-07
6.2804111e-10
-1.4094574e-06
-1.7041261e-10
1.1017302
3.8506351e-07
-5.8177843e-11
1.1017302
1.3697545e-06
8.0506691e-11
1.1017301
-3.6286487e-07
6.1612213e-10
-1.3491734e-06
-1.5610947e-10
1.2302588
2.7287886e-07
-7.0934902e-11
1.2302589
1.2907685e-06
1.1337078e-10
1.2302588
-2.5057042e-07
5.9842353e-10
-1.2700271e-06
-1.448399e-10
1.3697317
1.5525007e-07
-8.1171387e-11
1.3697318
1.1917876e-06
1.4661104e-10
1.3697317
-1.3331626e-07
5.7532737e-10
-1.1713455e-06
-1.3702966e-10
1.5206062
3.469525e-08
-8.8619471e-11
1.5206064
1.0725376e-06
1.8024007e-10
1.5206062
-1.3567232e-08
5.4726044e-10
-1.0528042e-06
-1.3300819e-10
1.6832937
-8.5977633e-08
-9.2618745e-11
1.6832938
9.331918e-07
2.1431558e-10
1.6832937
1.059333e-07
5.1469558e-10
-9.1451533e-07
-1.3300065e-10
1.858152
-2.0374295e-07
-9.2673007e-11
1.8581521
7.7445873e-07
2.4892416e-10
1.858152
2.2223231e-07
4.7815156e-10
-7.5711783e-07
-1.3712182e-10
2.045478
-3.1545214e-07
-8.8461248e-11
2.0454782
5.9766773e-07
2.8416687e-10
2.0454781
3.3225862e-07
4.3819111e-10
-5.8186683e-07
-1.4537294e-10
2.2455006
-4.1795015e-07
-7.9847091e-11
2.2455008
4.0485057e-07
3.2014325e-10
2.2455007
4.3293602e-07
3.9542151e-10
-3.9071843e-07
-1.5755381e-10
2.4583736
-5.082109e-07
-6.6896655e-11
2.4583739
1.9881479e-07
3.5693384e-10
2.4583738
5.2131553e-07
3.5049364e-10
-1.8640577e-07
-1.7357463e-10
2.6841699
-5.8348725e-07
-4.9856868e-11
2.6841701
-1.6795173e-08
3.9458133e-10
2.68417
5.9472228e-07
3.0410012e-10
2.7496293e-08
-1.9299159e-10
2.9228754
-6.4146874e-07
-2.916707e-11
2.9228756
-2.3745264e-07
4.3306846e-10
2.9228756
6.5091021e-07
2.5697286e-10
2.4652323e-07
-2.1533223e-10
3.1743846
-6.8043796e-07
-5.4522434e-12
3.1743848
-4.5772378e-07
4.7229406e-10
3.1743848
6.8821578e-07
2.0987759e-10
4.6529313e-07
-2.4000718e-10
3.4384969
-6.9941415e-07
2.0489124e-11
3.4384971
-6.7126787e-07
5.120456e-10
3.438497
7.0569908e-07
1.6360647e-10
6.775047e-07
-2.6631867e-10
3.7149134
-6.9827001e-07
4.770195e-11
3.7149136
-8.7087003e-07
5.5197257e-10
3.7149136
7.0325868e-07
1.1896044e-10
8.7596808e-07
-2.9347216e-10
4.003236
-6.7780537e-07
7.5099466e-11
4.0032362
-1.0485173e-06
5.9156486e-10
4.0032362
6.8170395e-07
7.6790053e-11
1.0526799e-06
-3.2059495e-10
4.3029667
-6.3976e-07
1.0149967e-10
4.3029669
-1.1955366e-06
6.3014304e-10
4.3029669
6.4276743e-07
3.7934847e-11
1.1989609e-06
-3.4676233e-10
4.613509
-5.8674725e-07
1.2567978e-10
4.6135092
-1.3028257e-06
6.6687354e-10
4.6135092
5.8903875e-07
3.3044826e-12
1.3056883e-06
-3.7103724e-10
4.9341702
-5.2209231e-07
1.4645537e-10
4.9341702
-1.3612293e-06
7.0081306e-10
4.9341703
5.2380404e-07
-2.6071098e-11
1.3636736e-06
-3.9253548e-10
5.2641652
-4.4956634e-07
1.6279091e-10
5.2641652
-1.3621424e-06
7.3099296e-10
5.2641652
4.5078139e-07
-4.8935827e-11
1.3642695e-06
-4.1050703e-10
5.602622
-3.7302357e-07
1.7394622e-10
5.6026219
-1.2984734e-06
7.5652157e-10
5.602622
3.7375956e-07
-6.3673867e-11
1.300338e-06
-4.2450128e-10
5.9485883
-2.9598284e-07
1.7964498e-10
5.9485881
-1.1661745e-06
7.7664407e-10
5.9485882
2.9618166e-07
-6.8210332e-11
1.1677852e-06
-4.3450818e-10
6.3010391
-2.2125695e-07
1.8022898e-10
6.3010389
-9.6665665e-07
7.9070441e-10
6.301039
2.2078195e-07
-6.0175098e-11
9.6798694e-07
-4.4108785e-10
6.658886
-1.5083419e-07
1.7669232e-10
6.6588857
-7.1050416e-07
7.9821377e-10
6.6588858
1.4949365e-07
-3.7975289e-11
7.1151724e-07
-4.45252e-10
7.020987
-8.6353251e-08
1.705769e-10
7.0209867
-4.2284259e-07
7.9923213e-10
7.0209868
8.4009769e-08
-2.9749456e-12
4.2355022e-07
-4.4786255e-10
7.3861577
-3.1253201e-08
1.6330597e-10
7.3861574
-1.5238834e-07
7.8521613e-10
7.3861575
2.8083356e-08
4.7779064e-11
1.5300532e-07
-4.4214056e-10
7.7531827
1.3736064e-10
7.7531825
6.5390487e-10
7.7531826
1.1835353e-10
-3.5848393e-10
-0.32230021
1.121183e-07
-0.32230032
1.2732105e-07
-0.32230021
-1.0730509e-07
-1.1014625e-07
-0.24670062
4.2015439e-07
-0.24670093
4.3679273e-07
-0.24670061
-4.1562747e-07
-4.0430696e-07
-0.1754517
7.4119284e-07
-0.17545204
7.6356892e-07
-0.17545172
-7.3541959e-07
-7.2615224e-07
-0.13524919
9.6791595e-07
-0.13524944
1.0038903e-06
-0.13524921
-9.5648918e-07
-9.6501465e-07
-0.11762516
1.0040328e-06
-0.11762522
1.0627599e-06
-0.11762519
-9.873707e-07
-1.0231174e-06
-0.11029639
8.7599241e-07
-0.11029628
9.5252645e-07
-0.11029641
-8.5591051e-07
-9.1315485e-07
-0.10504785
6.7903781e-07
-0.10504766
7.6080725e-07
-0.10504786
-6.5784296e-07
-7.2303336e-07
-0.098200873
4.9736762e-07
-0.098200685
5.7348256e-07
-0.09820087
-4.7653553e-07
-5.3854139e-07
-0.08887342
3.7235817e-07
-0.088873284
4.3809237e-07
-0.088873413
-3.5303115e-07
-4.0688951e-07
-0.07733478
3.0927562e-07
-0.077334708
3.6524754e-07
-0.077334773
-2.9226884e-07
-3.3859337e-07
-0.064080108
2.9548892e-07
-0.064080089
3.4519107e-07
-0.064080104
-2.8138124e-07
-3.2341783e-07
-0.049477443
3.1478143e-07
-0.049477461
3.6252945e-07
-0.049477442
-3.0392945e-07
-3.4579191e-07
-0.033706029
3.5405947e-07
-0.033706072
4.0397256e-07
-0.033706033
-3.465833e-07
-3.9222455e-07
-0.016795221
4.0463056e-07
-0.016795279
4.604656e-07
-0.016795228
-4.005016e-07
-4.5346743e-07
0.0013248611
4.6117215e-07
0.0013247932
5.2657134e-07
0.0013248502
-4.6021711e-07
-5.2389943e-07
0.02078867
5.2057929e-07
0.020788596
5.9913617e-07
0.020788656
-5.2253321e-07
-6.0020474e-07
0.041777805
5.8076583e-07
0.041777727
6.7617116e-07
0.041777787
-5.8520576e-07
-6.8025836e-07
0.06451452
6.4004363e-07
0.06451444
7.5617616e-07
0.064514499
-6.4639991e-07
-7.6246131e-07
0.089260201
6.9686178e-07
0.089260118
8.3782292e-07
0.089260175
-7.0445778e-07
-8.4542999e-07
0.11631516
7.497359e-07
0.11631508
9.1984609e-07
0.11631513
-7.5783469e-07
-9.2788863e-07
0.14601818
7.9725076e-07
0.1460181
1.0010211e-06
0.14601815
-8.051023e-07
-1.0086449e-06
0.17874526
8.380769e-07
0.17874518
1.0801615e-06
0.17874522
-8.4496227e-07
-1.0865828e-06
0.21490776
8.7098209e-07
0.21490768
1.1561105e-06
0.21490772
-8.7625198e-07
-1.1606478e-06
0.25495002
8.9483697e-07
0.25494995
1.2277238e-06
0.25494997
-8.9794275e-07
-1.2298226e-06
0.29934663
9.0862027e-07
0.29934656
1.2938476e-06
0.29934657
-9.0913635e-07
-1.2930963e-06
0.34859935
9.1142835e-07
0.34859929
1.3532985e-06
0.34859929
-9.0906582e-07
-1.3494361e-06
0.4032338
9.0249206e-07
0.40323375
1.4048477e-06
0.40323374
-8.9710363e-07
-1.3977642e-06
0.4637958
8.8120099e-07
0.46379576
1.4472131e-06
0.46379573
-8.7277804e-07
-1.4369429e-06
0.53084727
8.4713406e-07
0.53084724
1.4790599e-06
0.5308472
-8.35797e-07
-1.4657691e-06
0.60496188
8.0009455e-07
0.60496186
1.4990099e-06
0.60496181
-7.8607774e-07
-1.4829789e-06
0.68672011
7.401471e-07
0.6867201
1.5056601e-06
0.68672004
-7.2377978e-07
-1.4872629e-06
0.77670402
6.6765418e-07
0.77670402
1.4976103e-06
0.77670395
-6.4933888e-07
-1.4772913e-06
0.87549147
5.8330919e-07
0.87549149
1.4735002e-06
0.8754914
-5.6349891e-07
-1.4517507e-06
0.98364998
4.8816325e-07
0.98365002
1.4320569e-06
0.98364992
-4.6733855e-07
-1.4093913e-06
1.1017302
3.8364258e-07
1.1017302
1.3721517e-06
1.1017301
-3.6228962e-07
-1.3490842e-06
1.2302588
2.7155241e-07
1.2302589
1.2928634e-06
1.2302588
-2.5014377e-07
-1.2698895e-06
1.3697317
1.5406858e-07
1.3697318
1.1935554e-06
1.3697317
-1.3304382e-07
-1.1711327e-06
1.5206062
3.370549e-08
1.5206063
1.0739543e-06
1.5206062
-1.3457266e-08
-1.0524876e-06
1.6832937
-8.6732978e-08
1.6832938
9.3423572e-07
1.6832937
1.0587063e-07
-9.1406544e-07
1.858152
-2.0422582e-07
1.8581521
7.7511123e-07
1.858152
2.2198588e-07
-7.5650492e-07
2.045478
-3.1562984e-07
2.0454782
5.9791433e-07
2.045478
3.3181735e-07
-5.8106182e-07
2.2455006
-4.1779636e-07
2.2455008
4.0468207e-07
2.2455007
4.3229004e-07
-3.8969381e-07
2.4583736
-5.0770684e-07
2.4583738
1.9822835e-07
2.4583738
5.2045737e-07
-1.851374e-07
2.6841699
-5.826231e-07
2.6841701
-1.7794884e-08
2.68417
5.9364824e-07
2.9027931e-08
2.9228754
-6.402452e-07
2.9228756
-2.3885246e-07
2.9228755
6.4962178e-07
2.4833129e-07
3.1743846
-6.7886811e-07
3.1743848
-4.5950104e-07
3.1743848
6.8672114e-07
4.6738269e-07
3.4384969
-6.9752536e-07
3.4384971
-6.733896e-07
3.4384971
7.0401468e-07
6.7987092e-07
3.7149134
-6.9610587e-07
3.7149136
-8.7329226e-07
3.7149136
7.0141075e-07
8.7859439e-07
4.003236
-6.754274e-07
4.0032362
-1.0511847e-06
4.0032362
6.7973015e-07
1.0555363e-06
4.3029668
-6.3724878e-07
4.3029669
-1.1983826e-06
4.3029669
6.4071816e-07
1.2020025e-06
4.6135091
-5.8420209e-07
4.6135092
-1.3057728e-06
4.6135092
5.8697825e-07
1.3088537e-06
4.9341702
-5.1962856e-07
4.9341703
-1.3641903e-06
4.9341703
5.2181101e-07
1.3668831e-06
5.2641652
-4.4730852e-07
5.2641652
-1.3650231e-06
5.2641653
4.4894916e-07
1.3674233e-06
5.602622
-3.7109269e-07
5.6026219
-1.3011768e-06
5.602622
3.7219584e-07
1.3033137e-06
5.9485883
-2.9447633e-07
5.9485882
-1.1686096e-06
5.9485882
2.9500913e-07
1.1704391e-06
6.3010391
-2.2022201e-07
6.3010389
-9.6875825e-07
6.301039
2.2014287e-07
9.7016683e-07
6.658886
-1.5024319e-07
6.6588858
-7.1228033e-07
6.6588858
1.4956296e-07
7.1312051e-07
7.020987
-8.6102677e-08
7.0209867
-4.2448005e-07
7.0209868
8.5032434e-08
4.2469115e-07
7.3861577
-3.1225635e-08
7.3861574
-1.5430928e-07
7.3861575
3.0404693e-08
1.5421996e-07
7.7531827
7.7531825
7.7531826
)
;

boundaryField
{
    movingWall
    {
        type            calculated;
        value           uniform 0;
    }
    CPLReceiveMD
    {
        type            calculated;
        value           uniform 0;
    }
    streamwiseIn
    {
        type            cyclic;
        value           nonuniform List<scalar> 
120
(
0.32230009
0.24670028
0.17545131
0.13524888
0.11762503
0.11029644
0.10504801
0.098201043
0.088873548
0.077334851
0.064080127
0.049477425
0.033705987
0.016795165
-0.0013249248
-0.020788738
-0.041777875
-0.064514591
-0.089260269
-0.11631523
-0.14601824
-0.17874532
-0.21490781
-0.25495006
-0.29934666
-0.34859937
-0.40323381
-0.4637958
-0.53084726
-0.60496185
-0.68672007
-0.77670396
-0.8754914
-0.98364991
-1.1017301
-1.2302587
-1.3697316
-1.5206061
-1.6832936
-1.8581519
-2.0454779
-2.2455005
-2.4583736
-2.6841698
-2.9228753
-3.1743846
-3.4384968
-3.7149134
-4.003236
-4.3029668
-4.6135091
-4.9341702
-5.2641652
-5.6026221
-5.9485884
-6.3010392
-6.6588861
-7.0209871
-7.3861578
-7.7531827
0.3223001
0.24670031
0.17545138
0.13524897
0.11762513
0.11029652
0.10504805
0.098201057
0.088873547
0.077334844
0.064080122
0.049477422
0.033705988
0.016795168
-0.0013249199
-0.020788732
-0.041777867
-0.064514582
-0.089260259
-0.11631522
-0.14601823
-0.1787453
-0.21490779
-0.25495005
-0.29934664
-0.34859935
-0.40323379
-0.46379577
-0.53084724
-0.60496183
-0.68672004
-0.77670394
-0.87549138
-0.98364988
-1.1017301
-1.2302587
-1.3697316
-1.5206061
-1.6832936
-1.8581518
-2.0454779
-2.2455005
-2.4583735
-2.6841698
-2.9228753
-3.1743846
-3.4384968
-3.7149134
-4.003236
-4.3029668
-4.6135091
-4.9341703
-5.2641653
-5.6026221
-5.9485884
-6.3010392
-6.6588861
-7.0209871
-7.3861578
-7.7531827
)
;
    }
    streamwiseOut
    {
        type            cyclic;
        value           nonuniform List<scalar> 
120
(
-0.32230009
-0.24670028
-0.17545131
-0.13524888
-0.11762503
-0.11029644
-0.10504801
-0.098201043
-0.088873548
-0.077334851
-0.064080127
-0.049477425
-0.033705987
-0.016795165
0.0013249248
0.020788738
0.041777875
0.064514591
0.089260269
0.11631523
0.14601824
0.17874532
0.21490781
0.25495006
0.29934666
0.34859937
0.40323381
0.4637958
0.53084726
0.60496185
0.68672007
0.77670396
0.8754914
0.98364991
1.1017301
1.2302587
1.3697316
1.5206061
1.6832936
1.8581519
2.0454779
2.2455005
2.4583736
2.6841698
2.9228753
3.1743846
3.4384968
3.7149134
4.003236
4.3029668
4.6135091
4.9341702
5.2641652
5.6026221
5.9485884
6.3010392
6.6588861
7.0209871
7.3861578
7.7531827
-0.3223001
-0.24670031
-0.17545138
-0.13524897
-0.11762513
-0.11029652
-0.10504805
-0.098201057
-0.088873547
-0.077334844
-0.064080122
-0.049477422
-0.033705988
-0.016795168
0.0013249199
0.020788732
0.041777867
0.064514582
0.089260259
0.11631522
0.14601823
0.1787453
0.21490779
0.25495005
0.29934664
0.34859935
0.40323379
0.46379577
0.53084724
0.60496183
0.68672004
0.77670394
0.87549138
0.98364988
1.1017301
1.2302587
1.3697316
1.5206061
1.6832936
1.8581518
2.0454779
2.2455005
2.4583735
2.6841698
2.9228753
3.1743846
3.4384968
3.7149134
4.003236
4.3029668
4.6135091
4.9341703
5.2641653
5.6026221
5.9485884
6.3010392
6.6588861
7.0209871
7.3861578
7.7531827
)
;
    }
    front
    {
        type            cyclic;
        value           nonuniform 0();
    }
    back
    {
        type            cyclic;
        value           nonuniform 0();
    }
    procBoundary1to0
    {
        type            processor;
        value           nonuniform List<scalar> 
240
(
-1.6265911e-09
-2.5101229e-09
-3.8646914e-10
-1.2812089e-09
3.6596971e-09
-1.7361192e-09
-1.1010373e-10
-1.1426882e-09
6.17187e-09
-7.8742457e-10
1.4291771e-10
-8.1446694e-10
6.4727759e-09
1.0719113e-10
3.9482888e-10
-2.1909902e-10
5.5982002e-09
2.4370171e-10
5.997278e-10
3.2498242e-10
4.078336e-09
5.4965738e-11
6.9037353e-10
6.4248957e-10
2.5704034e-09
-2.042826e-10
6.0220224e-10
7.5094953e-10
1.7732865e-09
-3.8948524e-10
4.0250928e-10
6.9099552e-10
1.1606441e-09
-4.6658947e-10
2.1777789e-10
4.8415011e-10
6.9296017e-10
-4.6273433e-10
7.6257597e-11
3.3113846e-10
3.3862202e-10
-4.156099e-10
-1.7087438e-11
1.8401082e-10
1.5866271e-10
-3.5720225e-10
-6.8508876e-11
4.6869658e-11
1.335443e-10
-3.0769922e-10
-8.7696552e-11
-6.8483309e-11
1.0489395e-10
-2.739077e-10
-1.0712222e-10
-1.5954116e-10
5.124849e-11
-2.5526931e-10
-2.671535e-11
-2.2858755e-10
5.3502181e-13
-2.4794823e-10
1.9875404e-11
-2.793748e-10
-3.6114772e-11
-2.4756445e-10
6.0719865e-11
-3.1577637e-10
-5.6898333e-11
-2.5020498e-10
1.0484019e-10
-3.4100868e-10
-6.415484e-11
-2.5285257e-10
1.5326907e-10
-3.5745203e-10
-6.144287e-11
-2.5346847e-10
2.0484146e-10
-3.6679454e-10
-5.222271e-11
-2.5083731e-10
2.5794703e-10
-3.7023772e-10
-3.9468959e-11
-2.4438687e-10
3.1105462e-10
-3.6867508e-10
-2.5565233e-11
-2.3408494e-10
3.6284057e-10
-3.6281075e-10
-1.2331824e-11
-2.2011484e-10
4.1218651e-10
-3.532368e-10
-1.107903e-12
-2.0274357e-10
4.5814715e-10
-3.4048182e-10
7.1720444e-12
-1.8230094e-10
4.999252e-10
-3.250452e-10
1.1922501e-11
-1.591664e-10
5.36846e-10
-3.0742485e-10
1.2871593e-11
-1.3373358e-10
5.6835749e-10
-2.8813742e-10
1.0031704e-11
-1.0639002e-10
5.9402595e-10
-2.6773232e-10
3.6713745e-12
-7.7502354e-11
6.1353907e-10
-2.467945e-10
-5.7168444e-12
-4.7402615e-11
6.2670594e-10
-2.2594059e-10
-1.7456547e-11
-1.6379257e-11
6.3345303e-10
-2.0580551e-10
-3.073343e-11
1.5329971e-11
6.3381642e-10
-1.8702335e-10
-4.4645719e-11
4.7538001e-11
6.2793276e-10
-1.7020587e-10
-5.8258215e-11
8.0598993e-11
6.1602977e-10
-1.5592062e-10
-7.1073287e-11
1.1344394e-10
5.9834509e-10
-1.4467281e-10
-8.1298421e-11
1.4666745e-10
5.7526158e-10
-1.3688632e-10
-8.872994e-11
1.8028174e-10
5.4720618e-10
-1.3288884e-10
-9.2710364e-11
2.1434457e-10
5.1465169e-10
-1.3290418e-10
-9.2745706e-11
2.4894259e-10
4.7811682e-10
-1.3704618e-10
-8.8516386e-11
2.8417679e-10
4.3816423e-10
-1.453155e-10
-7.9886829e-11
3.2014661e-10
3.9540115e-10
-1.5753403e-10
-6.6923444e-11
3.5693235e-10
3.5047847e-10
-1.735619e-10
-4.9873289e-11
3.9457638e-10
3.0408902e-10
-1.9298426e-10
-2.9175478e-11
4.3306135e-10
2.5696485e-10
-2.1532901e-10
-5.4547018e-12
4.7228582e-10
2.0987178e-10
-2.4000697e-10
2.0490769e-11
5.1203696e-10
1.6360232e-10
-2.6632051e-10
4.7706228e-11
5.51964e-10
1.1895596e-10
-2.9347532e-10
7.5105105e-11
5.9155677e-10
7.678743e-11
-3.2059887e-10
1.0150574e-10
6.3013583e-10
3.7933506e-11
-3.4676652e-10
1.2568592e-10
6.6686732e-10
3.3039172e-12
-3.7104161e-10
1.4646118e-10
7.0080778e-10
-2.6071102e-11
-3.9253878e-10
1.6279629e-10
7.3098841e-10
-4.8935331e-11
-4.1051036e-10
1.7395099e-10
7.565176e-10
-6.3673046e-11
-4.2450441e-10
1.7964913e-10
7.766408e-10
-6.8209448e-11
-4.3451109e-10
1.8023249e-10
7.9070188e-10
-6.0174266e-11
-4.4109051e-10
1.7669536e-10
7.9821166e-10
-3.7974413e-11
-4.4525445e-10
1.7057965e-10
7.9923034e-10
-2.9740504e-12
-4.4786462e-10
1.6330859e-10
7.8521475e-10
4.7779861e-11
-4.421423e-10
1.3736268e-10
6.5390399e-10
1.1835421e-10
-3.5848539e-10
)
;
    }
    procBoundary1to0throughback
    {
        type            processorCyclic;
        value           nonuniform List<scalar> 
240
(
-6.9033557e-09
-7.0189126e-10
2.869296e-09
4.1913925e-09
5.770989e-09
5.5481022e-09
4.7320065e-09
3.8244619e-09
2.9968007e-09
2.3062336e-09
1.7611396e-09
1.3434494e-09
1.0203925e-09
7.359101e-10
5.9960737e-10
4.9463127e-10
4.0627803e-10
3.3100161e-10
2.6626393e-10
2.1034405e-10
1.6203923e-10
1.2061967e-10
8.5652533e-11
5.6886703e-11
3.4160698e-11
1.7330298e-11
6.2042848e-12
4.9509692e-13
-2.1681117e-13
3.5001671e-12
1.0930109e-11
2.1227555e-11
3.3449456e-11
4.6595129e-11
5.9646242e-11
7.2076525e-11
8.2029579e-11
8.9265054e-11
9.3107374e-11
9.304537e-11
8.8746936e-11
8.0067826e-11
6.7068423e-11
4.999137e-11
2.9273022e-11
5.5359992e-12
-2.0422755e-11
-4.7649293e-11
-7.5057622e-11
-1.0146658e-10
-1.2565361e-10
-1.4643466e-10
-1.627746e-10
-1.7393353e-10
-1.7963511e-10
-1.8022124e-10
-1.7668619e-10
-1.7057216e-10
-1.6330252e-10
-1.3735862e-10
-2.4425711e-09
-2.429063e-09
-1.7975738e-09
-1.0103846e-09
-3.1492794e-10
2.2141238e-10
6.0067138e-10
8.1819563e-10
8.9038517e-10
8.7939565e-10
8.1928162e-10
7.4044899e-10
6.6158209e-10
5.8878852e-10
5.2682416e-10
4.7634861e-10
4.3566101e-10
4.0246058e-10
3.7439186e-10
3.4938867e-10
3.2582005e-10
3.0255711e-10
2.789129e-10
2.5449791e-10
2.2901335e-10
2.023269e-10
1.7441689e-10
1.4534543e-10
1.1523576e-10
8.4245987e-11
5.2547693e-11
2.0306068e-11
-1.2335831e-11
-4.5306045e-11
-7.8856488e-11
-1.1211832e-10
-1.4566555e-10
-1.7952874e-10
-2.1378223e-10
-2.485257e-10
-2.8387027e-10
-3.1992332e-10
-3.5677134e-10
-3.9446166e-10
-4.3298064e-10
-4.7222982e-10
-5.1199879e-10
-5.5193862e-10
-5.9154018e-10
-6.3012514e-10
-6.6686064e-10
-7.0080366e-10
-7.3098587e-10
-7.5651595e-10
-7.7663951e-10
-7.9070079e-10
-7.9821087e-10
-7.9922995e-10
-7.852147e-10
-6.539044e-10
-5.8046275e-10
7.8967217e-10
1.6100078e-09
1.6744409e-09
1.5567546e-09
1.391242e-09
1.25457e-09
1.1490882e-09
1.0461767e-09
9.3415052e-10
8.1324524e-10
6.8790224e-10
5.6225346e-10
4.3655768e-10
2.9682171e-10
2.0373591e-10
1.1950852e-10
3.6651845e-11
-4.3480395e-11
-1.200958e-10
-1.9267424e-10
-2.6083095e-10
-3.2422908e-10
-3.8254098e-10
-4.3543666e-10
-4.8258161e-10
-5.2365608e-10
-5.5837425e-10
-5.8650911e-10
-6.0791006e-10
-6.2251317e-10
-6.3034545e-10
-6.3152293e-10
-6.2624579e-10
-6.14791e-10
-5.9743589e-10
-5.7459346e-10
-5.4671383e-10
-5.1428724e-10
-4.7784545e-10
-4.379607e-10
-3.9524737e-10
-3.5036147e-10
-3.0399945e-10
-2.5689596e-10
-2.0981853e-10
-1.63561e-10
-1.1892376e-10
-7.6761956e-11
-3.7913353e-11
-3.2878339e-12
2.6084014e-11
4.8946024e-11
6.3682051e-11
6.821714e-11
6.0180822e-11
3.798022e-11
2.9792751e-12
-4.7775754e-11
-1.1835198e-10
-3.7853048e-09
-3.0216193e-09
-1.3397655e-09
-4.1171983e-10
-1.9473399e-10
-2.0008138e-10
-2.1234127e-10
-1.56362e-10
-9.4703972e-11
1.7974407e-10
3.3840051e-10
4.4010736e-10
5.020895e-10
5.3343345e-10
5.4264422e-10
5.3743556e-10
5.2392853e-10
5.0629833e-10
4.8699384e-10
4.6721936e-10
4.474017e-10
4.2755303e-10
4.0750653e-10
3.8705648e-10
3.6603618e-10
3.4436102e-10
3.2205259e-10
2.9925014e-10
2.7620747e-10
2.5328558e-10
2.3093208e-10
2.0965611e-10
1.899999e-10
1.725082e-10
1.5769991e-10
1.4604458e-10
1.3793985e-10
1.3369384e-10
1.335154e-10
1.375068e-10
1.4565678e-10
1.5778903e-10
1.7374876e-10
1.9311972e-10
2.1542593e-10
2.4007521e-10
2.663678e-10
2.935075e-10
3.2062007e-10
3.4678019e-10
3.7104981e-10
3.9254326e-10
4.1051224e-10
4.2450468e-10
4.3451036e-10
4.4108937e-10
4.4525294e-10
4.4786297e-10
4.4214048e-10
3.5848322e-10
)
;
    }
}


// ************************************************************************* //
