/*--------------------------------*- C++ -*----------------------------------*\
| =========                 |                                                 |
| \\      /  F ield         | OpenFOAM: The Open Source CFD Toolbox           |
|  \\    /   O peration     | Version:  3.0.1                                 |
|   \\  /    A nd           | Web:      www.OpenFOAM.org                      |
|    \\/     M anipulation  |                                                 |
\*---------------------------------------------------------------------------*/
FoamFile
{
    version     2.0;
    format      ascii;
    class       volVectorField;
    location    "225";
    object      U;
}
// * * * * * * * * * * * * * * * * * * * * * * * * * * * * * * * * * * * * * //

dimensions      [0 1 -1 0 0 0 0];

internalField   nonuniform List<vector> 
480
(
(-0.020303633 5.0987346e-10 7.8879881e-12)
(-0.020303648 5.5562922e-10 3.0315562e-12)
(-0.020303648 -4.1874803e-10 2.3596845e-12)
(-0.020303633 -4.2737489e-10 1.9298161e-12)
(-0.015541143 3.8646799e-09 1.2460324e-11)
(-0.015541185 3.8901751e-09 6.6314919e-12)
(-0.015541184 -3.7194291e-09 3.6524519e-12)
(-0.015541142 -3.5721588e-09 3.8351086e-12)
(-0.011052737 9.4922401e-09 1.24822e-11)
(-0.011052784 9.5096831e-09 9.4636891e-12)
(-0.011052783 -9.4443179e-09 3.7813625e-12)
(-0.011052739 -9.1280215e-09 6.5383338e-12)
(-0.008520142 1.4368568e-08 1.1344237e-11)
(-0.0085201785 1.4602104e-08 1.0612096e-11)
(-0.0085201768 -1.4377541e-08 3.4891621e-12)
(-0.0085201455 -1.4259102e-08 8.0670038e-12)
(-0.0074099088 1.6548416e-08 9.8850955e-12)
(-0.0074099223 1.7210666e-08 1.0476503e-11)
(-0.0074099205 -1.6573329e-08 3.2190904e-12)
(-0.0074099131 -1.6899215e-08 8.2932248e-12)
(-0.0069482373 1.5472094e-08 8.22959e-12)
(-0.0069482285 1.6598844e-08 9.5994412e-12)
(-0.006948227 -1.5514693e-08 2.9926314e-12)
(-0.0069482409 -1.6302592e-08 7.6154543e-12)
(-0.0066176078 1.2404523e-08 6.7107186e-12)
(-0.0066175876 1.3799506e-08 8.3363896e-12)
(-0.0066175864 -1.2476169e-08 2.6509143e-12)
(-0.0066176097 -1.3521416e-08 6.4477027e-12)
(-0.006186277 9.0489118e-09 5.4537341e-12)
(-0.0061862563 1.0459679e-08 6.9236054e-12)
(-0.0061862554 -9.1574936e-09 2.2251571e-12)
(-0.0061862774 -1.021443e-08 5.1022703e-12)
(-0.0055986823 6.4634771e-09 4.444111e-12)
(-0.0055986673 7.7322057e-09 5.5534157e-12)
(-0.0055986666 -6.6102311e-09 1.9654968e-12)
(-0.0055986819 -7.5338469e-09 3.7814092e-12)
(-0.0048717902 4.9631788e-09 3.6557959e-12)
(-0.0048717824 6.0455643e-09 4.3119733e-12)
(-0.004871782 -5.1408735e-09 1.8341116e-12)
(-0.0048717896 -5.9027577e-09 2.7090231e-12)
(-0.004036795 4.41248e-09 3.0320561e-12)
(-0.0040367934 5.3404243e-09 3.2137304e-12)
(-0.0040367931 -4.6126624e-09 1.7425619e-12)
(-0.0040367946 -5.2577278e-09 1.764009e-12)
(-0.0031168824 4.5293976e-09 2.550108e-12)
(-0.003116885 5.3689368e-09 2.2790015e-12)
(-0.003116885 -4.7472295e-09 1.6448989e-12)
(-0.0031168823 -5.3472044e-09 1.0207904e-12)
(-0.0021233441 5.0556789e-09 2.1703443e-12)
(-0.0021233493 5.8804449e-09 1.5472334e-12)
(-0.0021233494 -5.2912305e-09 1.5223878e-12)
(-0.0021233443 -5.9175671e-09 4.8227524e-13)
(-0.001058029 5.8126226e-09 1.8395551e-12)
(-0.0010580358 6.6912541e-09 1.0037951e-12)
(-0.001058036 -6.0675854e-09 1.3712091e-12)
(-0.0010580295 -6.7835005e-09 1.1963362e-13)
(8.3465124e-05 6.6943563e-09 1.5320428e-12)
(8.3457573e-05 7.6879232e-09 6.1191206e-13)
(8.3457158e-05 -6.9693861e-09 1.1959736e-12)
(8.3464344e-05 -7.8298751e-09 -1.0168245e-13)
(0.0013096085 7.6403969e-09 1.2502569e-12)
(0.0013096006 8.8057862e-09 3.4151956e-13)
(0.0013096 -7.9338856e-09 1.0107124e-12)
(0.0013096075 -8.9902292e-09 -2.1683872e-13)
(0.0026318413 8.612882e-09 9.9615871e-13)
(0.0026318333 1.0006826e-08 1.6552726e-13)
(0.0026318325 -8.9198631e-09 8.2817489e-13)
(0.0026318401 -1.0224853e-08 -2.5814405e-13)
(0.0040641646 9.5833016e-09 7.7398862e-13)
(0.0040641568 1.1264931e-08 5.8413302e-14)
(0.0040641557 -9.8963861e-09 6.5964098e-13)
(0.0040641632 -1.1506223e-08 -2.5280453e-13)
(0.0056230447 1.052632e-08 5.8475081e-13)
(0.0056230372 1.2558373e-08 -1.5190722e-15)
(0.0056230359 -1.0836507e-08 5.116887e-13)
(0.005623043 -1.281159e-08 -2.2182531e-13)
(0.0073274005 1.1417738e-08 4.2999429e-13)
(0.0073273935 1.3866852e-08 -3.0997056e-14)
(0.0073273919 -1.1715081e-08 3.8701258e-13)
(0.0073273985 -1.412013e-08 -1.8022101e-13)
(0.009198573 1.2234295e-08 3.0706187e-13)
(0.0091985668 1.5170737e-08 -4.1484304e-14)
(0.0091985649 -1.2508576e-08 2.8565745e-13)
(0.0091985709 -1.5412253e-08 -1.375887e-13)
(0.011260249 1.2953984e-08 2.1311786e-13)
(0.011260244 1.6451021e-08 -4.179053e-14)
(0.011260242 -1.3195349e-08 2.0596599e-13)
(0.011260247 -1.666955e-08 -9.9448895e-14)
(0.013538344 1.3556311e-08 1.4362196e-13)
(0.013538339 1.7689271e-08 -3.6771015e-14)
(0.013538337 -1.3755851e-08 1.4526131e-13)
(0.013538341 -1.7874706e-08 -6.8290892e-14)
(0.016060847 1.4022423e-08 9.3892361e-14)
(0.016060845 1.8867423e-08 -3.0024683e-14)
(0.016060841 -1.4172656e-08 1.0041433e-13)
(0.016060845 -1.9011203e-08 -4.4622826e-14)
(0.018857658 1.4335171e-08 5.9565943e-14)
(0.018857656 1.996744e-08 -2.3392822e-14)
(0.018857653 -1.44304e-08 6.8261644e-14)
(0.018857655 -2.0062887e-08 -2.7793558e-14)
(0.021960384 1.4479204e-08 3.6786804e-14)
(0.021960384 2.0970949e-08 -1.780015e-14)
(0.02196038 -1.4515761e-08 4.5892715e-14)
(0.021960381 -2.1013487e-08 -1.6604647e-14)
(0.025402138 1.444117e-08 2.2320798e-14)
(0.02540214 2.1858939e-08 -1.3480902e-14)
(0.025402135 -1.4417524e-08 3.0765132e-14)
(0.025402135 -2.1846201e-08 -9.704472e-15)
(0.029217303 1.4210033e-08 1.3587294e-14)
(0.029217308 2.2611578e-08 -1.0338657e-14)
(0.029217302 -1.4126782e-08 2.0815044e-14)
(0.029217301 -2.2543384e-08 -5.8253845e-15)
(0.03344128 1.3777509e-08 8.6094849e-15)
(0.033441287 2.3208156e-08 -8.1318851e-15)
(0.033441281 -1.3637266e-08 1.4420349e-14)
(0.033441279 -2.3086386e-08 -3.9109102e-15)
(0.038110207 1.3138594e-08 5.9455776e-15)
(0.038110216 2.3627155e-08 -6.5902864e-15)
(0.038110209 -1.2945776e-08 1.0369546e-14)
(0.038110206 -2.3455544e-08 -3.1508202e-15)
(0.043260651 1.2292134e-08 4.6025274e-15)
(0.043260663 2.3846479e-08 -5.4785834e-15)
(0.043260656 -1.2052694e-08 7.8018072e-15)
(0.043260651 -2.3630328e-08 -2.9736715e-15)
(0.048929281 1.1241425e-08 3.9265254e-15)
(0.048929295 2.3843807e-08 -4.6243253e-15)
(0.048929288 -1.0962521e-08 6.1347464e-15)
(0.048929282 -2.3589662e-08 -3.0125268e-15)
(0.055152499 9.9947703e-09 3.5221543e-15)
(0.055152516 2.3597116e-08 -3.9096887e-15)
(0.055152508 -9.6844162e-09 4.9939245e-15)
(0.055152501 -2.3312416e-08 -3.0576473e-15)
(0.061966057 8.5659661e-09 3.1778966e-15)
(0.061966077 2.3085342e-08 -3.270959e-15)
(0.061966068 -8.2326734e-09 4.1500256e-15)
(0.06196606 -2.2778057e-08 -3.0093116e-15)
(0.06940464 6.9746692e-09 2.8026714e-15)
(0.069404664 2.2289198e-08 -2.6856135e-15)
(0.069404655 -6.6270941e-09 3.4721886e-15)
(0.069404646 -2.196749e-08 -2.8419148e-15)
(0.077501437 5.2465885e-09 2.3778737e-15)
(0.077501464 2.1192159e-08 -2.1393927e-15)
(0.077501454 -4.8931976e-09 2.8924389e-15)
(0.077501445 -2.0864046e-08 -2.5685753e-15)
(0.086287677 3.4134386e-09 1.9174828e-15)
(0.086287708 1.978157e-08 -1.6344773e-15)
(0.086287697 -3.0622199e-09 2.3804517e-15)
(0.086287688 -1.945463e-08 -2.2229269e-15)
(0.095792173 1.5126329e-09 1.445964e-15)
(0.095792207 1.8049866e-08 -1.1811915e-15)
(0.095792195 -1.1708498e-09 1.9281322e-15)
(0.095792186 -1.7730995e-08 -1.8424826e-15)
(0.10604084 -4.1332773e-10 9.917686e-16)
(0.10604088 1.5995901e-08 -7.8763693e-16)
(0.10604086 7.3934611e-10 1.5334569e-15)
(0.10604086 -1.5691108e-08 -1.4608632e-15)
(0.11705622 -2.3178214e-09 5.8173649e-16)
(0.11705626 1.3626327e-08 -4.5927807e-16)
(0.11705625 2.6228359e-09 1.19461e-15)
(0.11705624 -1.3340584e-08 -1.1013768e-15)
(0.12885702 -4.1514322e-09 2.3246038e-16)
(0.12885706 1.0956982e-08 -1.9650521e-16)
(0.12885705 4.4313953e-09 9.1046915e-16)
(0.12885704 -1.069412e-08 -7.8299769e-16)
(0.14145765 -5.8636366e-09 -5.0026817e-17)
(0.14145769 8.0142334e-09 4.0292799e-18)
(0.14145768 6.1157401e-09 6.7968427e-16)
(0.14145768 -7.7768938e-09 -5.2021754e-16)
(0.15486781 -7.4048136e-09 -2.6834698e-16)
(0.15486786 4.8362222e-09 1.4970717e-16)
(0.15486785 7.6274868e-09 4.9894736e-16)
(0.15486784 -4.6258563e-09 -3.0883677e-16)
(0.16909208 -8.7285315e-09 -4.2452513e-16)
(0.16909213 1.473948e-09 2.5004249e-16)
(0.16909212 8.9213891e-09 3.6028317e-16)
(0.16909212 -1.2908641e-09 -1.4760901e-16)
(0.18412959 -9.7940203e-09 -5.2681413e-16)
(0.18412964 -2.0078717e-09 3.0914367e-16)
(0.18412962 9.957763e-09 2.5732734e-16)
(0.18412962 2.1644127e-09 -2.7021851e-17)
(0.19997367 -1.0568705e-08 -5.8425485e-16)
(0.19997372 -5.5302224e-09 3.3513941e-16)
(0.19997371 1.0704975e-08 1.8473663e-16)
(0.19997372 5.6618666e-09 5.9502738e-17)
(0.2166117 -1.1030638e-08 -6.0069707e-16)
(0.21661175 -8.9995735e-09 3.3812861e-16)
(0.21661174 1.1141831e-08 1.3080913e-16)
(0.21661175 9.1086947e-09 1.1555484e-16)
(0.23402485 -1.1170622e-08 -5.8562853e-16)
(0.2340249 -1.2308109e-08 3.25904e-16)
(0.23402489 1.125967e-08 8.7293314e-17)
(0.2340249 1.2397598e-08 1.4964588e-16)
(0.25218804 -1.0993795e-08 -5.4210782e-16)
(0.25218809 -1.5334538e-08 3.0226741e-16)
(0.25218807 1.1063918e-08 4.8693401e-17)
(0.25218809 1.5407567e-08 1.6611866e-16)
(0.2710699 -1.0520386e-08 -4.823379e-16)
(0.27106994 -1.7945705e-08 2.6610334e-16)
(0.27106992 1.0574829e-08 2.2290479e-17)
(0.27106994 1.8005482e-08 1.6806299e-16)
(0.29063284 -9.7853595e-09 -4.2592484e-16)
(0.29063288 -1.9999365e-08 2.2772451e-16)
(0.29063286 9.8271287e-09 7.9181839e-18)
(0.29063288 2.004889e-08 1.6855278e-16)
(0.31083322 -8.8366619e-09 -3.6757127e-16)
(0.31083326 -2.1348705e-08 1.9194763e-16)
(0.31083324 8.8682646e-09 -3.7077127e-18)
(0.31083327 2.1390551e-08 1.5965289e-16)
(0.33162161 -7.7318491e-09 -3.1492705e-16)
(0.33162164 -2.1849721e-08 1.6378825e-16)
(0.33162162 7.7550486e-09 -1.6935485e-17)
(0.33162165 2.1885853e-08 1.4814748e-16)
(0.35294306 -6.5331097e-09 -2.6275227e-16)
(0.35294308 -2.1373541e-08 1.4097064e-16)
(0.35294306 6.548692e-09 -2.6071623e-17)
(0.35294309 2.1405191e-08 1.3064524e-16)
(0.37473757 -5.3008672e-09 -2.1616305e-16)
(0.37473759 -1.9826087e-08 1.1562699e-16)
(0.37473756 5.3084586e-09 -2.7244971e-17)
(0.37473759 1.9853688e-08 1.1498102e-16)
(0.39694058 -4.0862006e-09 -1.7153359e-16)
(0.39694059 -1.7173993e-08 8.9306222e-17)
(0.39694057 4.0842677e-09 -2.5377414e-17)
(0.3969406 1.7197246e-08 1.0109912e-16)
(0.41948353 -2.9235261e-09 -1.3560215e-16)
(0.41948353 -1.3475217e-08 7.3803144e-17)
(0.4194835 2.9093818e-09 -2.8787134e-17)
(0.41948354 1.3493561e-08 8.6914462e-17)
(0.44229447 -1.836371e-09 -1.1013734e-16)
(0.44229446 -8.9688926e-09 6.2142833e-17)
(0.44229444 1.8056493e-09 -3.0123825e-17)
(0.44229447 8.9829288e-09 7.3037578e-17)
(0.46529878 -8.7877714e-10 -9.2920649e-17)
(0.46529877 -4.3438105e-09 4.7437677e-17)
(0.46529875 8.2859221e-10 -2.7406069e-17)
(0.46529878 4.3556413e-09 6.1425126e-17)
(0.48841991 -2.4323726e-10 -6.8426755e-17)
(0.4884199 -1.1444407e-09 2.9345306e-17)
(0.48841989 2.1554982e-10 -2.2581901e-17)
(0.4884199 1.1495492e-09 4.8659484e-17)
(-0.020303633 4.9441985e-10 -3.0779729e-10)
(-0.020303649 6.388536e-10 -2.2272411e-10)
(-0.020303648 -4.8982036e-10 -3.5612411e-11)
(-0.020303634 -5.1225556e-10 -2.130551e-10)
(-0.015541144 3.8255218e-09 3.6703544e-10)
(-0.015541187 4.0716523e-09 -1.8854218e-10)
(-0.015541186 -3.7496719e-09 4.1654816e-11)
(-0.015541144 -3.6773062e-09 -1.7751967e-10)
(-0.011052741 9.3454296e-09 7.3098687e-10)
(-0.011052788 9.6352414e-09 -8.897592e-11)
(-0.011052787 -9.2842467e-09 1.0629348e-10)
(-0.011052744 -9.076433e-09 -8.0135999e-11)
(-0.0085201474 1.4143207e-08 8.2460065e-10)
(-0.0085201834 1.4585646e-08 -1.2580342e-11)
(-0.0085201817 -1.4017475e-08 1.3594676e-10)
(-0.0085201513 -1.3979422e-08 -5.8953448e-12)
(-0.0074099147 1.6363451e-08 7.4541914e-10)
(-0.0074099272 1.7114411e-08 2.7475962e-11)
(-0.0074099256 -1.614485e-08 1.3880191e-10)
(-0.0074099193 -1.6492675e-08 3.2642548e-11)
(-0.0069482419 1.5364446e-08 5.999663e-10)
(-0.0069482323 1.6472319e-08 4.2268353e-11)
(-0.0069482309 -1.507361e-08 1.2680137e-10)
(-0.0069482457 -1.5846978e-08 4.6409433e-11)
(-0.0066176104 1.2403629e-08 4.558274e-10)
(-0.0066175897 1.3703607e-08 4.4799634e-11)
(-0.0066175886 -1.2074449e-08 1.0886038e-10)
(-0.0066176123 -1.3092604e-08 4.8210688e-11)
(-0.0061862778 9.1490147e-09 3.3736448e-10)
(-0.0061862569 1.0428881e-08 4.2656372e-11)
(-0.0061862561 -8.8125305e-09 9.0249609e-11)
(-0.0061862782 -9.852312e-09 4.5537241e-11)
(-0.0055986821 6.6390821e-09 2.4750983e-10)
(-0.0055986671 7.7696742e-09 3.9019345e-11)
(-0.0055986666 -6.3174591e-09 7.3465025e-11)
(-0.0055986817 -7.2447376e-09 4.1452915e-11)
(-0.0048717897 5.1792617e-09 1.81527e-10)
(-0.004871782 6.1348993e-09 3.4932392e-11)
(-0.0048717817 -4.8886928e-09 5.9149154e-11)
(-0.0048717891 -5.6759069e-09 3.665759e-11)
(-0.0040367946 4.6379813e-09 1.3353327e-10)
(-0.0040367931 5.4599963e-09 3.0765551e-11)
(-0.0040367929 -4.3897723e-09 4.7264304e-11)
(-0.0040367942 -5.0764603e-09 3.1749879e-11)
(-0.0031168822 4.7447658e-09 9.8348345e-11)
(-0.0031168849 5.5008042e-09 2.6648488e-11)
(-0.0031168849 -4.5460859e-09 3.7552018e-11)
(-0.0031168821 -5.1963767e-09 2.7073157e-11)
(-0.0021233441 5.253819e-09 7.2285208e-11)
(-0.0021233494 6.0130207e-09 2.2645912e-11)
(-0.0021233496 -5.1081398e-09 2.9692637e-11)
(-0.0021233444 -5.788113e-09 2.2728313e-11)
(-0.0010580292 5.9936587e-09 5.3019728e-11)
(-0.001058036 6.8184814e-09 1.8891544e-11)
(-0.0010580363 -5.9015609e-09 2.3363783e-11)
(-0.0010580298 -6.6708464e-09 1.8788333e-11)
(8.346479e-05 6.8591274e-09 3.8722259e-11)
(8.3457258e-05 7.8074858e-09 1.5498995e-11)
(8.345678e-05 -6.8189262e-09 1.8182224e-11)
(8.346399e-05 -7.7318993e-09 1.5300409e-11)
(0.0013096081 7.7888308e-09 2.8189739e-11)
(0.0013096002 8.9174135e-09 1.2531776e-11)
(0.0013095995 -7.7969772e-09 1.4007879e-11)
(0.0013096071 -8.905795e-09 1.22927e-11)
(0.0026318408 8.7449396e-09 2.0490752e-11)
(0.0026318328 1.0111106e-08 1.0006988e-11)
(0.002631832 -8.7959239e-09 1.0718734e-11)
(0.0026318395 -1.015301e-08 9.7613903e-12)
(0.004064164 9.6991471e-09 1.4889517e-11)
(0.0040641562 1.1362723e-08 7.9086067e-12)
(0.0040641551 -9.7850758e-09 8.1684706e-12)
(0.0040641625 -1.1445878e-08 7.6753996e-12)
(0.005623044 1.0626286e-08 1.0822933e-11)
(0.0056230366 1.2650538e-08 6.1977372e-12)
(0.0056230352 -1.0737244e-08 6.2094912e-12)
(0.0056230423 -1.2761467e-08 5.9864443e-12)
(0.0073273996 1.1502332e-08 7.8754978e-12)
(0.0073273928 1.3954159e-08 4.8232599e-12)
(0.0073273911 -1.1627076e-08 4.7128314e-12)
(0.0073273977 -1.407887e-08 4.6383858e-12)
(0.0091985721 1.2304204e-08 5.7383481e-12)
(0.009198566 1.5253846e-08 3.7317096e-12)
(0.009198564 -1.2430914e-08 3.5732567e-12)
(0.00919857 -1.5378524e-08 3.5747685e-12)
(0.011260248 1.3010057e-08 4.1882102e-12)
(0.011260243 1.6530482e-08 2.8732536e-12)
(0.011260241 -1.312706e-08 2.7072492e-12)
(0.011260246 -1.6642132e-08 2.7432157e-12)
(0.013538342 1.3599534e-08 3.0620751e-12)
(0.013538338 1.7765527e-08 2.20254e-12)
(0.013538336 -1.3695965e-08 2.0499229e-12)
(0.01353834 -1.7852532e-08 2.0979092e-12)
(0.016060846 1.4053883e-08 2.242374e-12)
(0.016060844 1.8940807e-08 1.6829355e-12)
(0.01606084 -1.4120234e-08 1.5512965e-12)
(0.016060844 -1.8993374e-08 1.6001694e-12)
(0.018857656 1.4356019e-08 1.644443e-12)
(0.018857655 2.0038177e-08 1.2819121e-12)
(0.018857651 -1.4384566e-08 1.1730219e-12)
(0.018857654 -2.0048659e-08 1.2181289e-12)
(0.021960382 1.4490623e-08 1.207367e-12)
(0.021960383 2.103917e-08 9.7429241e-13)
(0.021960379 -1.4475709e-08 8.8617307e-13)
(0.02196038 -2.1002254e-08 9.2601914e-13)
(0.025402136 1.4444351e-08 8.8719401e-13)
(0.025402139 2.1924698e-08 7.3924122e-13)
(0.025402134 -1.4382529e-08 6.6864637e-13)
(0.025402134 -2.1837464e-08 7.0330642e-13)
(0.029217302 1.4206157e-08 6.5227382e-13)
(0.029217307 2.2674858e-08 5.6013953e-13)
(0.029217301 -1.4096206e-08 5.0388086e-13)
(0.0292173 -2.2536729e-08 5.3388951e-13)
(0.033441279 1.3767731e-08 4.7971106e-13)
(0.033441286 2.3268871e-08 4.2398315e-13)
(0.03344128 -1.3610556e-08 3.7923304e-13)
(0.033441277 -2.3081458e-08 4.0514889e-13)
(0.038110205 1.3124036e-08 3.5288219e-13)
(0.038110215 2.3685157e-08 3.2062706e-13)
(0.038110208 -1.292247e-08 2.8506049e-13)
(0.038110204 -2.3452023e-08 3.0740898e-13)
(0.04326065 1.2273882e-08 2.596797e-13)
(0.043260662 2.3901558e-08 2.4228087e-13)
(0.043260654 -1.2032412e-08 2.1402958e-13)
(0.04326065 -2.3627914e-08 2.3322072e-13)
(0.048929279 1.1220523e-08 1.912083e-13)
(0.048929294 2.3895701e-08 1.8294781e-13)
(0.048929286 -1.094497e-08 1.6055428e-13)
(0.04892928 -2.3588058e-08 1.7687925e-13)
(0.055152497 9.9722193e-09 1.4092859e-13)
(0.055152515 2.3645514e-08 1.3806166e-13)
(0.055152506 -9.6693842e-09 1.2036843e-13)
(0.0551525 -2.3311311e-08 1.3406976e-13)
(0.061966055 8.5427261e-09 1.0402879e-13)
(0.061966076 2.3129897e-08 1.0410732e-13)
(0.061966067 -8.2200257e-09 9.0212249e-14)
(0.061966059 -2.2777124e-08 1.0152551e-13)
(0.069404639 6.9516555e-09 7.6949768e-14)
(0.069404663 2.2329546e-08 7.8256525e-14)
(0.069404653 -6.6167678e-09 6.7607363e-14)
(0.069404645 -2.1966373e-08 7.6780207e-14)
(0.077501435 5.2246595e-09 5.7045324e-14)
(0.077501463 2.1227915e-08 5.8698797e-14)
(0.077501452 -4.8851967e-09 5.0680357e-14)
(0.077501443 -2.0862359e-08 5.7966784e-14)
(0.086287676 3.3934059e-09 4.2418339e-14)
(0.086287707 1.9812331e-08 4.3938302e-14)
(0.086287696 -3.0566081e-09 3.8015507e-14)
(0.086287687 -1.9451959e-08 4.3670241e-14)
(0.095792172 1.495268e-09 3.1673733e-14)
(0.095792206 1.807524e-08 3.2812026e-14)
(0.095792194 -1.1677396e-09 2.8541726e-14)
(0.095792185 -1.7726897e-08 3.2820284e-14)
(0.10604084 -4.2731272e-10 2.3770945e-14)
(0.10604087 1.6015522e-08 2.4438685e-14)
(0.10604086 7.3980552e-10 2.1453058e-14)
(0.10604085 -1.5685121e-08 2.459752e-14)
(0.11705622 -2.3277832e-09 1.7933006e-14)
(0.11705626 1.3639869e-08 1.814872e-14)
(0.11705625 2.6204723e-09 1.6144123e-14)
(0.11705624 -1.3332235e-08 1.8381165e-14)
(0.12885702 -4.1568062e-09 1.3598854e-14)
(0.12885706 1.0964177e-08 1.3435686e-14)
(0.12885705 4.4260285e-09 1.2165492e-14)
(0.12885704 -1.0682938e-08 1.3693342e-14)
(0.14145765 -5.8639504e-09 1.0368279e-14)
(0.14145769 8.0148883e-09 9.913911e-15)
(0.14145768 6.1071992e-09 9.1776766e-15)
(0.14145768 -7.7624253e-09 1.0154001e-14)
(0.15486781 -7.3997043e-09 7.9489107e-15)
(0.15486786 4.8302364e-09 7.2927428e-15)
(0.15486784 7.6156289e-09 6.9304406e-15)
(0.15486784 -4.6076878e-09 7.4974373e-15)
(0.16909208 -8.7177661e-09 6.1245809e-15)
(0.16909213 1.4613307e-09 5.3473316e-15)
(0.16909212 8.9061198e-09 5.2345476e-15)
(0.16909212 -1.2686446e-09 5.5144105e-15)
(0.18412959 -9.7775194e-09 4.7413378e-15)
(0.18412964 -2.026984e-09 3.9074835e-15)
(0.18412962 9.9390587e-09 3.9533718e-15)
(0.18412962 2.19095e-09 4.0379353e-15)
(0.19997367 -1.0546571e-08 3.6812049e-15)
(0.19997372 -5.5555499e-09 2.8458351e-15)
(0.19997371 1.0682906e-08 2.9891268e-15)
(0.19997372 5.6928748e-09 2.9404868e-15)
(0.2166117 -1.1003183e-08 2.8639129e-15)
(0.21661175 -9.0306788e-09 2.0641859e-15)
(0.21661174 1.1116588e-08 2.2597e-15)
(0.21661175 9.1441811e-09 2.1319854e-15)
(0.23402485 -1.1138403e-08 2.2311485e-15)
(0.2340249 -1.2344386e-08 1.48895e-15)
(0.23402489 1.1231587e-08 1.7071769e-15)
(0.2340249 1.2437398e-08 1.5404944e-15)
(0.25218804 -1.0957639e-08 1.7417105e-15)
(0.25218809 -1.5375201e-08 1.0743337e-15)
(0.25218807 1.1033497e-08 1.2889197e-15)
(0.25218809 1.5451319e-08 1.1015604e-15)
(0.2710699 -1.0481414e-08 1.3549843e-15)
(0.27106994 -1.798979e-08 7.7285545e-16)
(0.27106992 1.0542766e-08 9.7246819e-16)
(0.27106994 1.8052598e-08 7.8553085e-16)
(0.29063284 -9.7449994e-09 1.0518428e-15)
(0.29063288 -2.0045731e-08 5.5200151e-16)
(0.29063286 9.7943328e-09 7.3995476e-16)
(0.29063288 2.0098532e-08 5.5357939e-16)
(0.31083323 -8.7966204e-09 8.1545352e-16)
(0.31083326 -2.1396048e-08 3.9653722e-16)
(0.31083324 8.8358709e-09 5.633028e-16)
(0.31083327 2.1441603e-08 3.8379059e-16)
(0.33162161 -7.6940421e-09 6.2753773e-16)
(0.33162164 -2.1896604e-08 2.9183584e-16)
(0.33162162 7.7244259e-09 4.3378446e-16)
(0.33162165 2.1936894e-08 2.5815647e-16)
(0.35294306 -6.4995087e-09 4.7656384e-16)
(0.35294308 -2.1418452e-08 2.2455961e-16)
(0.35294306 6.5214437e-09 3.3882521e-16)
(0.35294309 2.1454459e-08 1.6754951e-16)
(0.37473757 -5.2732433e-09 3.6149695e-16)
(0.37473759 -1.9867508e-08 1.7658757e-16)
(0.37473756 5.286407e-09 2.7313179e-16)
(0.3747376 1.9899021e-08 1.0461626e-16)
(0.39694059 -4.065759e-09 2.7922633e-16)
(0.3969406 -1.7210468e-08 1.3699525e-16)
(0.39694057 4.0694162e-09 2.2263522e-16)
(0.3969406 1.7236085e-08 6.6960053e-17)
(0.41948353 -2.9104962e-09 2.1986275e-16)
(0.41948353 -1.3505751e-08 1.0753877e-16)
(0.41948351 2.90429e-09 1.8485327e-16)
(0.41948354 1.3523516e-08 3.9022696e-17)
(0.44229447 -1.8298233e-09 1.6888354e-16)
(0.44229447 -8.9956852e-09 8.093805e-17)
(0.44229444 1.8151555e-09 1.5620443e-16)
(0.44229447 9.0043773e-09 1.9357766e-17)
(0.46529878 -8.7706022e-10 1.2198873e-16)
(0.46529878 -4.3736589e-09 5.2778235e-17)
(0.46529876 8.6046544e-10 1.1821021e-16)
(0.46529878 4.3756093e-09 3.1387206e-19)
(0.48841991 -2.4298006e-10 6.9514461e-17)
(0.4884199 -1.1594146e-09 1.8548904e-17)
(0.48841989 2.3497369e-10 5.5512225e-17)
(0.4884199 1.1586651e-09 -2.1043723e-17)
)
;

boundaryField
{
    movingWall
    {
        type            fixedValue;
        value           uniform (0.5 0 0);
    }
    CPLReceiveMD
    {
        type            fixedValue;
        value           uniform (-0.017767287 0 0);
    }
    streamwiseIn
    {
        type            cyclic;
    }
    streamwiseOut
    {
        type            cyclic;
    }
    front
    {
        type            cyclic;
    }
    back
    {
        type            cyclic;
    }
    procBoundary1to0
    {
        type            processor;
        value           nonuniform List<vector> 
240
(
(-0.020303633 4.9329053e-10 3.0779729e-10)
(-0.020303649 6.3539569e-10 2.2272411e-10)
(-0.020303648 -4.8966127e-10 3.5612411e-11)
(-0.020303634 -5.1513991e-10 2.130551e-10)
(-0.015541144 3.8291836e-09 -3.6703544e-10)
(-0.015541187 4.0696316e-09 1.8854218e-10)
(-0.015541186 -3.7476502e-09 -4.1654816e-11)
(-0.015541144 -3.6818483e-09 1.7751967e-10)
(-0.011052741 9.3572721e-09 -7.3098687e-10)
(-0.011052788 9.6375986e-09 8.897592e-11)
(-0.011052787 -9.2753515e-09 -1.0629348e-10)
(-0.011052744 -9.0766642e-09 8.0135999e-11)
(-0.0085201475 1.415637e-08 -8.2460065e-10)
(-0.0085201834 1.4591177e-08 1.2580342e-11)
(-0.0085201817 -1.4007678e-08 -1.3594676e-10)
(-0.0085201513 -1.3975576e-08 5.8953448e-12)
(-0.0074099147 1.6376678e-08 -7.4541914e-10)
(-0.0074099272 1.7122065e-08 -2.7475962e-11)
(-0.0074099256 -1.6137852e-08 -1.3880191e-10)
(-0.0074099193 -1.6485729e-08 -3.2642548e-11)
(-0.0069482419 1.5377196e-08 -5.999663e-10)
(-0.0069482323 1.6481643e-08 -4.2268353e-11)
(-0.0069482309 -1.5068516e-08 -1.2680137e-10)
(-0.0069482457 -1.5837726e-08 -4.6409433e-11)
(-0.0066176104 1.2414641e-08 -4.558274e-10)
(-0.0066175897 1.3714115e-08 -4.4799634e-11)
(-0.0066175886 -1.206988e-08 -1.0886038e-10)
(-0.0066176123 -1.3082068e-08 -4.8210688e-11)
(-0.0061862778 9.1580244e-09 -3.3736448e-10)
(-0.0061862569 1.043967e-08 -4.2656372e-11)
(-0.0061862561 -8.8089719e-09 -9.0249609e-11)
(-0.0061862782 -9.8416059e-09 -4.5537241e-11)
(-0.0055986821 6.6462655e-09 -2.4750983e-10)
(-0.0055986671 7.7798658e-09 -3.9019345e-11)
(-0.0055986666 -6.3154234e-09 -7.3465025e-11)
(-0.0055986817 -7.2352123e-09 -4.1452915e-11)
(-0.0048717897 5.1849209e-09 -1.81527e-10)
(-0.004871782 6.1441027e-09 -3.4932392e-11)
(-0.0048717817 -4.8875226e-09 -5.9149154e-11)
(-0.0048717891 -5.6678832e-09 -3.665759e-11)
(-0.0040367946 4.6424108e-09 -1.3353327e-10)
(-0.0040367931 5.4680338e-09 -3.0765551e-11)
(-0.0040367929 -4.3888565e-09 -4.7264304e-11)
(-0.0040367942 -5.0697447e-09 -3.1749879e-11)
(-0.0031168822 4.7482065e-09 -9.8348345e-11)
(-0.0031168849 5.5074066e-09 -2.6648488e-11)
(-0.0031168849 -4.545123e-09 -3.7552018e-11)
(-0.0031168821 -5.1912814e-09 -2.7073157e-11)
(-0.0021233441 5.2566421e-09 -7.2285208e-11)
(-0.0021233494 6.0180736e-09 -2.2645912e-11)
(-0.0021233496 -5.1070111e-09 -2.9692637e-11)
(-0.0021233444 -5.7845372e-09 -2.2728313e-11)
(-0.0010580292 5.9961839e-09 -5.3019728e-11)
(-0.001058036 6.8221841e-09 -1.8891544e-11)
(-0.0010580363 -5.9002496e-09 -2.3363783e-11)
(-0.0010580298 -6.6685365e-09 -1.8788333e-11)
(8.3464789e-05 6.861453e-09 -3.8722259e-11)
(8.3457258e-05 7.8101038e-09 -1.5498995e-11)
(8.3456781e-05 -6.8174934e-09 -1.8182224e-11)
(8.3463989e-05 -7.7305754e-09 -1.5300409e-11)
(0.0013096081 7.7909437e-09 -2.8189739e-11)
(0.0013096002 8.9191751e-09 -1.2531776e-11)
(0.0013095996 -7.7955212e-09 -1.4007879e-11)
(0.0013096071 -8.9051862e-09 -1.22927e-11)
(0.0026318408 8.7468173e-09 -2.0490752e-11)
(0.0026318328 1.0112222e-08 -1.0006988e-11)
(0.002631832 -8.7945357e-09 -1.0718734e-11)
(0.0026318395 -1.0152879e-08 -9.7613903e-12)
(0.004064164 9.7007698e-09 -1.4889517e-11)
(0.0040641562 1.1363379e-08 -7.9086067e-12)
(0.0040641551 -9.7838243e-09 -8.1684706e-12)
(0.0040641625 -1.1446031e-08 -7.6753996e-12)
(0.005623044 1.0627644e-08 -1.0822933e-11)
(0.0056230366 1.2650889e-08 -6.1977372e-12)
(0.0056230352 -1.0736165e-08 -6.2094912e-12)
(0.0056230423 -1.2761762e-08 -5.9864443e-12)
(0.0073273996 1.1503428e-08 -7.8754978e-12)
(0.0073273928 1.3954316e-08 -4.8232599e-12)
(0.0073273911 -1.1626181e-08 -4.7128314e-12)
(0.0073273977 -1.407921e-08 -4.6383858e-12)
(0.0091985721 1.230506e-08 -5.7383481e-12)
(0.009198566 1.5253888e-08 -3.7317096e-12)
(0.009198564 -1.2430196e-08 -3.5732567e-12)
(0.00919857 -1.5378849e-08 -3.5747685e-12)
(0.011260248 1.3010702e-08 -4.1882102e-12)
(0.011260243 1.6530463e-08 -2.8732536e-12)
(0.011260241 -1.3126503e-08 -2.7072492e-12)
(0.011260246 -1.664241e-08 -2.7432157e-12)
(0.013538342 1.3600005e-08 -3.0620751e-12)
(0.013538338 1.776548e-08 -2.20254e-12)
(0.013538336 -1.3695546e-08 -2.0499229e-12)
(0.01353834 -1.7852751e-08 -2.0979092e-12)
(0.016060846 1.4054215e-08 -2.242374e-12)
(0.016060844 1.8940754e-08 -1.6829355e-12)
(0.01606084 -1.4119929e-08 -1.5512965e-12)
(0.016060844 -1.8993536e-08 -1.6001694e-12)
(0.018857656 1.4356244e-08 -1.644443e-12)
(0.018857655 2.0038129e-08 -1.2819121e-12)
(0.018857651 -1.4384349e-08 -1.1730219e-12)
(0.018857654 -2.0048772e-08 -1.2181289e-12)
(0.021960382 1.449077e-08 -1.207367e-12)
(0.021960383 2.1039131e-08 -9.7429241e-13)
(0.021960379 -1.447556e-08 -8.8617307e-13)
(0.02196038 -2.1002327e-08 -9.2601914e-13)
(0.025402136 1.4444443e-08 -8.8719401e-13)
(0.025402139 2.1924669e-08 -7.3924122e-13)
(0.025402134 -1.4382429e-08 -6.6864637e-13)
(0.025402134 -2.1837508e-08 -7.0330642e-13)
(0.029217302 1.420621e-08 -6.5227382e-13)
(0.029217307 2.2674838e-08 -5.6013953e-13)
(0.029217301 -1.409614e-08 -5.0388086e-13)
(0.0292173 -2.2536752e-08 -5.3388951e-13)
(0.033441279 1.3767761e-08 -4.7971106e-13)
(0.033441286 2.3268856e-08 -4.2398315e-13)
(0.03344128 -1.3610515e-08 -3.7923304e-13)
(0.033441277 -2.3081469e-08 -4.0514889e-13)
(0.038110205 1.3124051e-08 -3.5288219e-13)
(0.038110215 2.3685147e-08 -3.2062706e-13)
(0.038110208 -1.2922443e-08 -2.8506049e-13)
(0.038110204 -2.3452027e-08 -3.0740898e-13)
(0.04326065 1.227389e-08 -2.596797e-13)
(0.043260662 2.390155e-08 -2.4228087e-13)
(0.043260654 -1.2032395e-08 -2.1402958e-13)
(0.04326065 -2.3627915e-08 -2.3322072e-13)
(0.048929279 1.1220527e-08 -1.912083e-13)
(0.048929294 2.3895695e-08 -1.8294781e-13)
(0.048929286 -1.0944959e-08 -1.6055428e-13)
(0.04892928 -2.3588057e-08 -1.7687925e-13)
(0.055152497 9.9722222e-09 -1.4092859e-13)
(0.055152515 2.3645509e-08 -1.3806166e-13)
(0.055152506 -9.6693764e-09 -1.2036843e-13)
(0.0551525 -2.3311311e-08 -1.3406976e-13)
(0.061966055 8.542729e-09 -1.0402879e-13)
(0.061966076 2.3129892e-08 -1.0410732e-13)
(0.061966067 -8.2200197e-09 -9.0212249e-14)
(0.061966059 -2.2777125e-08 -1.0152551e-13)
(0.069404639 6.9516588e-09 -7.6949768e-14)
(0.069404663 2.2329541e-08 -7.8256525e-14)
(0.069404653 -6.6167629e-09 -6.7607363e-14)
(0.069404645 -2.1966374e-08 -7.6780207e-14)
(0.077501435 5.2246632e-09 -5.7045324e-14)
(0.077501463 2.122791e-08 -5.8698797e-14)
(0.077501452 -4.8851925e-09 -5.0680357e-14)
(0.077501443 -2.0862361e-08 -5.7966784e-14)
(0.086287676 3.3934098e-09 -4.2418339e-14)
(0.086287707 1.9812327e-08 -4.3938302e-14)
(0.086287696 -3.0566045e-09 -3.8015507e-14)
(0.086287687 -1.9451962e-08 -4.3670241e-14)
(0.095792172 1.4952719e-09 -3.1673733e-14)
(0.095792206 1.8075237e-08 -3.2812026e-14)
(0.095792194 -1.1677365e-09 -2.8541726e-14)
(0.095792185 -1.77269e-08 -3.2820284e-14)
(0.10604084 -4.2730905e-10 -2.3770945e-14)
(0.10604087 1.6015518e-08 -2.4438685e-14)
(0.10604086 7.3980819e-10 -2.1453058e-14)
(0.10604085 -1.5685124e-08 -2.459752e-14)
(0.11705622 -2.3277799e-09 -1.7933006e-14)
(0.11705626 1.3639866e-08 -1.814872e-14)
(0.11705625 2.6204745e-09 -1.6144123e-14)
(0.11705624 -1.3332238e-08 -1.8381165e-14)
(0.12885702 -4.1568034e-09 -1.3598854e-14)
(0.12885706 1.0964175e-08 -1.3435686e-14)
(0.12885705 4.4260303e-09 -1.2165492e-14)
(0.12885704 -1.068294e-08 -1.3693342e-14)
(0.14145765 -5.8639482e-09 -1.0368279e-14)
(0.14145769 8.0148867e-09 -9.913911e-15)
(0.14145768 6.1072006e-09 -9.1776766e-15)
(0.14145768 -7.762427e-09 -1.0154001e-14)
(0.15486781 -7.3997026e-09 -7.9489107e-15)
(0.15486786 4.8302352e-09 -7.2927428e-15)
(0.15486784 7.6156299e-09 -6.9304406e-15)
(0.15486784 -4.607689e-09 -7.4974373e-15)
(0.16909208 -8.7177648e-09 -6.1245809e-15)
(0.16909213 1.4613298e-09 -5.3473316e-15)
(0.16909212 8.9061205e-09 -5.2345477e-15)
(0.16909212 -1.2686455e-09 -5.5144105e-15)
(0.18412959 -9.7775185e-09 -4.7413378e-15)
(0.18412964 -2.0269845e-09 -3.9074835e-15)
(0.18412962 9.9390592e-09 -3.9533719e-15)
(0.18412962 2.1909494e-09 -4.0379353e-15)
(0.19997367 -1.054657e-08 -3.6812049e-15)
(0.19997372 -5.5555502e-09 -2.8458351e-15)
(0.19997371 1.0682907e-08 -2.9891268e-15)
(0.19997372 5.6928744e-09 -2.9404868e-15)
(0.2166117 -1.1003183e-08 -2.863913e-15)
(0.21661175 -9.0306789e-09 -2.0641859e-15)