/*--------------------------------*- C++ -*----------------------------------*\
| =========                 |                                                 |
| \\      /  F ield         | OpenFOAM: The Open Source CFD Toolbox           |
|  \\    /   O peration     | Version:  3.0.1                                 |
|   \\  /    A nd           | Web:      www.OpenFOAM.org                      |
|    \\/     M anipulation  |                                                 |
\*---------------------------------------------------------------------------*/
FoamFile
{
    version     2.0;
    format      ascii;
    class       volScalarField;
    location    "325";
    object      p;
}
// * * * * * * * * * * * * * * * * * * * * * * * * * * * * * * * * * * * * * //

dimensions      [0 2 -2 0 0 0 0];

internalField   nonuniform List<scalar> 
480
(
-2.2938042e-07
-2.6575343e-07
4.7736861e-07
4.956454e-07
-2.6563452e-07
-2.6981658e-07
4.6202139e-07
5.1600213e-07
-2.2874203e-07
-2.4818969e-07
4.4407797e-07
5.2500313e-07
-1.8011992e-07
-2.1260562e-07
4.2570018e-07
5.0571943e-07
-1.5759414e-07
-1.7982721e-07
4.0228523e-07
4.6629355e-07
-1.5486315e-07
-1.5991129e-07
3.8211583e-07
4.2226299e-07
-1.6267226e-07
-1.5250128e-07
3.623323e-07
3.7988803e-07
-1.7284569e-07
-1.5322907e-07
3.3934847e-07
3.4061275e-07
-1.8032612e-07
-1.5750573e-07
3.1203344e-07
3.043036e-07
-1.8363041e-07
-1.6254226e-07
2.8202844e-07
2.7126946e-07
-1.833401e-07
-1.6719548e-07
2.5198705e-07
2.4230484e-07
-1.8082965e-07
-1.7122252e-07
2.2422326e-07
2.1805862e-07
-1.7740843e-07
-1.7478408e-07
2.0022403e-07
1.9886984e-07
-1.741155e-07
-1.782033e-07
1.8075715e-07
1.8473798e-07
-1.7167529e-07
-1.8184076e-07
1.6600839e-07
1.7540238e-07
-1.7051659e-07
-1.8602034e-07
1.5574983e-07
1.704403e-07
-1.7081829e-07
-1.9099468e-07
1.4949063e-07
1.6933787e-07
-1.725682e-07
-1.969138e-07
1.4660361e-07
1.7154318e-07
-1.7562522e-07
-2.0383417e-07
1.4642293e-07
1.7650774e-07
-1.7977518e-07
-2.1174913e-07
1.4830829e-07
1.8371726e-07
-1.8477337e-07
-2.2060301e-07
1.516868e-07
1.9271149e-07
-1.903727e-07
-2.3030775e-07
1.5607826e-07
2.0309352e-07
-1.9633949e-07
-2.4075644e-07
1.6108517e-07
2.1453007e-07
-2.024603e-07
-2.518323e-07
1.6638559e-07
2.2674599e-07
-2.085431e-07
-2.6341377e-07
1.7172183e-07
2.3951552e-07
-2.1441569e-07
-2.7537669e-07
1.7688836e-07
2.5265235e-07
-2.1992305e-07
-2.8759478e-07
1.8172112e-07
2.6600292e-07
-2.2492505e-07
-2.999393e-07
1.8608871e-07
2.7943298e-07
-2.2929463e-07
-3.1227827e-07
1.8988583e-07
2.9282146e-07
-2.3291676e-07
-3.2447595e-07
1.9302847e-07
3.0605611e-07
-2.3568806e-07
-3.363924e-07
1.9545064e-07
3.1902858e-07
-2.375172e-07
-3.4788352e-07
1.9710207e-07
3.3163089e-07
-2.3832568e-07
-3.5880139e-07
1.9794681e-07
3.4375278e-07
-2.3804905e-07
-3.6899501e-07
1.9796232e-07
3.5528005e-07
-2.3663835e-07
-3.783115e-07
1.9713875e-07
3.6609349e-07
-2.3406161e-07
-3.8659764e-07
1.9547888e-07
3.7606844e-07
-2.3030548e-07
-3.9370191e-07
1.929977e-07
3.8507541e-07
-2.2537669e-07
-3.9947703e-07
1.8972204e-07
3.9298062e-07
-2.1930333e-07
-4.0378314e-07
1.8569014e-07
3.9964761e-07
-2.1213593e-07
-4.0649128e-07
1.8095082e-07
4.0493921e-07
-2.0394807e-07
-4.0748791e-07
1.7556243e-07
4.087204e-07
-1.9483651e-07
-4.0668016e-07
1.6959135e-07
4.1086221e-07
-1.8492074e-07
-4.0400121e-07
1.6311016e-07
4.1124517e-07
-1.7434156e-07
-3.9941766e-07
1.5619538e-07
4.0976698e-07
-1.6325886e-07
-3.929364e-07
1.4892509e-07
4.0634848e-07
-1.5184808e-07
-3.8461265e-07
1.413765e-07
4.0094295e-07
-1.4029543e-07
-3.7455801e-07
1.3362371e-07
3.9354687e-07
-1.2879163e-07
-3.6294811e-07
1.2573634e-07
3.842125e-07
-1.1752431e-07
-3.5002887e-07
1.1777947e-07
3.730621e-07
-1.0666941e-07
-3.3611992e-07
1.0981613e-07
3.6030302e-07
-9.6382244e-08
-3.2161316e-07
1.0191346e-07
3.4624212e-07
-8.678984e-08
-3.0696389e-07
9.4154371e-08
3.3129715e-07
-7.7986764e-08
-2.9267202e-07
8.6656337e-08
3.1600117e-07
-7.0037839e-08
-2.7925238e-07
7.9598356e-08
3.0099565e-07
-6.2991414e-08
-2.6719243e-07
7.3254167e-08
2.8700231e-07
-5.6905107e-08
-2.5688573e-07
6.8021653e-08
2.7474621e-07
-5.1887869e-08
-2.4856635e-07
6.4423864e-08
2.6482537e-07
-4.8196587e-08
-2.4260803e-07
6.306201e-08
2.5785727e-07
-4.6334089e-08
-2.4066304e-07
6.4385043e-08
2.5538579e-07
-4.7017366e-08
-2.465555e-07
6.860972e-08
2.6042698e-07
-2.4146479e-07
-2.0410212e-07
4.0212668e-07
4.7672234e-07
-2.5154265e-07
-2.5490115e-07
4.209288e-07
5.0456713e-07
-2.4681839e-07
-2.8522957e-07
4.272897e-07
5.1581634e-07
-2.3191302e-07
-2.841323e-07
4.2002773e-07
4.9398466e-07
-2.1280869e-07
-2.6335467e-07
4.0003333e-07
4.500468e-07
-2.0037898e-07
-2.3888236e-07
3.7847439e-07
4.0070801e-07
-1.9454703e-07
-2.1761471e-07
3.5555915e-07
3.5395303e-07
-1.9221364e-07
-2.0162592e-07
3.298825e-07
3.1263831e-07
-1.9042933e-07
-1.9020999e-07
3.0104561e-07
2.7689093e-07
-1.8808089e-07
-1.8236959e-07
2.7057401e-07
2.4663952e-07
-1.8516823e-07
-1.7741622e-07
2.4072553e-07
2.2189884e-07
-1.8207749e-07
-1.7485029e-07
2.1344368e-07
2.0260444e-07
-1.7923977e-07
-1.7428192e-07
1.9004439e-07
1.8842713e-07
-1.7702142e-07
-1.7542059e-07
1.7114203e-07
1.7887548e-07
-1.7569704e-07
-1.7806872e-07
1.5685071e-07
1.7341196e-07
-1.7543719e-07
-1.8209829e-07
1.4692317e-07
1.7150565e-07
-1.7630685e-07
-1.8741363e-07
1.4088101e-07
1.7265485e-07
-1.7827749e-07
-1.9394159e-07
1.3812323e-07
1.763952e-07
-1.8124832e-07
-2.0160338e-07
1.3801175e-07
1.8230326e-07
-1.8507101e-07
-2.1030818e-07
1.3993325e-07
1.899992e-07
-1.8957179e-07
-2.1994503e-07
1.4334211e-07
1.9914845e-07
-1.9456859e-07
-2.3039743e-07
1.4775924e-07
2.0946107e-07
-1.998819e-07
-2.4154467e-07
1.5278553e-07
2.2068939e-07
-2.0534039e-07
-2.5326446e-07
1.5809642e-07
2.3262348e-07
-2.1078312e-07
-2.6543445e-07
1.6343145e-07
2.4508535e-07
-2.1605961e-07
-2.779324e-07
1.6858332e-07
2.5792237e-07
-2.2102923e-07
-2.9063553e-07
1.7338758e-07
2.7099828e-07
-2.2556019e-07
-3.0341948e-07
1.7771422e-07
2.8419198e-07
-2.2952919e-07
-3.1615707e-07
1.8146085e-07
2.9739115e-07
-2.3282147e-07
-3.2871735e-07
1.845476e-07
3.1048674e-07
-2.3533143e-07
-3.4096498e-07
1.8691327e-07
3.2336994e-07
-2.3696373e-07
-3.5275999e-07
1.8851275e-07
3.3592983e-07
-2.3763463e-07
-3.6395801e-07
1.8931521e-07
3.4805169e-07
-2.3727367e-07
-3.7441102e-07
1.8930299e-07
3.5961599e-07
-2.3582545e-07
-3.8396847e-07
1.8847066e-07
3.7049786e-07
-2.3325144e-07
-3.9247896e-07
1.8682489e-07
3.8056738e-07
-2.295318e-07
-3.9979239e-07
1.8438391e-07
3.8968962e-07
-2.2466698e-07
-4.0576258e-07
1.811772e-07
3.9772607e-07
-2.186792e-07
-4.1025042e-07
1.7724497e-07
4.0453602e-07
-2.1161357e-07
-4.1312789e-07
1.7263746e-07
4.0997877e-07
-2.035388e-07
-4.1428248e-07
1.6741388e-07
4.1391644e-07
-1.9454746e-07
-4.1362252e-07
1.6164097e-07
4.1621784e-07
-1.8475553e-07
-4.1108276e-07
1.5539116e-07
4.1676218e-07
-1.7430108e-07
-4.0663181e-07
1.4874056e-07
4.1544624e-07
-1.6334203e-07
-4.0027917e-07
1.4176648e-07
4.1219067e-07
-1.5205252e-07
-3.9208335e-07
1.3454504e-07
4.0694899e-07
-1.4061789e-07
-3.8216e-07
1.2714901e-07
3.9971821e-07
-1.2922794e-07
-3.7068956e-07
1.1964639e-07
3.9055099e-07
-1.1806854e-07
-3.5792337e-07
1.1210051e-07
3.7956908e-07
-1.0731184e-07
-3.4418645e-07
1.0457269e-07
3.6697726e-07
-9.7105884e-08
-3.2987477e-07
9.7128975e-08
3.5307599e-07
-8.7565385e-08
-3.1544368e-07
8.9852845e-08
3.3827017e-07
-7.8766622e-08
-3.0138435e-07
8.286569e-08
3.2307061e-07
-7.0751206e-08
-2.8818639e-07
7.6355607e-08
3.0808377e-07
-6.3544481e-08
-2.762841e-07
7.0610046e-08
2.9398082e-07
-5.7193178e-08
-2.6597518e-07
6.6034607e-08
2.814193e-07
-5.1827658e-08
-2.5733803e-07
6.311716e-08
2.7091444e-07
-4.777692e-08
-2.5054184e-07
6.229881e-08
2.6300781e-07
-4.5660727e-08
-2.4709074e-07
6.3705294e-08
2.592998e-07
-4.6241621e-08
-2.505732e-07
6.6669335e-08
2.6289957e-07
)
;

boundaryField
{
    movingWall
    {
        type            zeroGradient;
    }
    CPLReceiveMD
    {
        type            zeroGradient;
    }
    streamwiseIn
    {
        type            cyclic;
    }
    streamwiseOut
    {
        type            cyclic;
    }
    front
    {
        type            cyclic;
    }
    back
    {
        type            cyclic;
    }
    procBoundary0to1
    {
        type            processor;
        value           nonuniform List<scalar> 
240
(
-2.5087598e-07
-1.8984047e-07
4.5452473e-07
5.8720553e-07
-2.3350588e-07
-2.259976e-07
4.2775165e-07
5.7710493e-07
-2.2130635e-07
-2.3610277e-07
4.0617476e-07
5.5177856e-07
-2.1021094e-07
-2.2372685e-07
3.8804413e-07
5.0428442e-07
-1.9986736e-07
-2.0360829e-07
3.6793573e-07
4.479356e-07
-1.9767307e-07
-1.8870829e-07
3.5208743e-07
3.9606704e-07
-2.0083769e-07
-1.8134931e-07
3.3688093e-07
3.5186835e-07
-2.045993e-07
-1.7947079e-07
3.1836016e-07
3.142036e-07
-2.0557805e-07
-1.7998505e-07
2.9513072e-07
2.8114635e-07
-2.0303268e-07
-1.8101713e-07
2.6869609e-07
2.5188366e-07
-1.9792626e-07
-1.8192818e-07
2.4166155e-07
2.2663715e-07
-1.9161726e-07
-1.8270667e-07
2.1633816e-07
2.0574921e-07
-1.8527877e-07
-1.8358005e-07
1.9425866e-07
1.8939945e-07
-1.7979e-07
-1.8484772e-07
1.7629192e-07
1.7756722e-07
-1.7572374e-07
-1.8680526e-07
1.626988e-07
1.7004083e-07
-1.733772e-07
-1.8969839e-07
1.5331854e-07
1.6647165e-07
-1.7282109e-07
-1.9369586e-07
1.4771867e-07
1.6642384e-07
-1.7395778e-07
-1.9888166e-07
1.4532126e-07
1.6941727e-07
-1.7658057e-07
-2.0526078e-07
1.455021e-07
1.7496481e-07
-1.8042568e-07
-2.1277413e-07
1.4765625e-07
1.8260212e-07
-1.8521175e-07
-2.2133586e-07
1.5123102e-07
1.9190816e-07
-1.9066484e-07
-2.3082986e-07
1.5576269e-07
2.0251618e-07
-1.9653175e-07
-2.411274e-07
1.6086854e-07
2.1411576e-07
-2.0258501e-07
-2.5209534e-07
1.6623812e-07
2.2644889e-07
-2.086226e-07
-2.6360002e-07
1.716223e-07
2.3930248e-07
-2.1446526e-07
-2.7550843e-07
1.7682179e-07
2.5249995e-07
-2.1995307e-07
-2.8768791e-07
1.8167704e-07
2.6589402e-07
-2.2494251e-07
-3.0000511e-07
1.8605985e-07
2.793551e-07
-2.2930418e-07
-3.1232477e-07
1.8986716e-07
2.9276572e-07
-2.3292145e-07
-3.2450881e-07
1.9301657e-07
3.0601619e-07
-2.3568987e-07
-3.3641563e-07
1.9544318e-07
3.1899997e-07
-2.3751739e-07
-3.4789995e-07
1.970975e-07
3.3161036e-07
-2.3832503e-07
-3.5881301e-07
1.9794408e-07
3.4373803e-07
-2.3804803e-07
-3.6900323e-07
1.9796075e-07
3.5526944e-07
-2.3663722e-07
-3.7831733e-07
1.971379e-07
3.6608587e-07
-2.3406053e-07
-3.8660177e-07
1.9547847e-07
3.7606296e-07
-2.3030452e-07
-3.9370484e-07
1.9299754e-07
3.8507147e-07
-2.2537587e-07
-3.9947911e-07
1.8972202e-07
3.9297778e-07
-2.1930265e-07
-4.0378462e-07
1.8569018e-07
3.9964556e-07
-2.1213538e-07
-4.0649233e-07
1.8095089e-07
4.0493773e-07
-2.0394763e-07
-4.0748866e-07
1.7556251e-07
4.0871933e-07
-1.9483617e-07
-4.066807e-07
1.6959143e-07
4.1086144e-07
-1.8492047e-07
-4.0400159e-07
1.6311023e-07
4.1124462e-07
-1.7434135e-07
-3.9941793e-07
1.5619544e-07
4.0976657e-07
-1.632587e-07
-3.9293659e-07
1.4892515e-07
4.0634818e-07
-1.5184796e-07
-3.8461279e-07
1.4137654e-07
4.0094274e-07
-1.4029534e-07
-3.7455811e-07
1.3362375e-07
3.9354672e-07
-1.2879156e-07
-3.6294819e-07
1.2573636e-07
3.8421239e-07
-1.1752426e-07
-3.5002893e-07
1.1777949e-07
3.7306202e-07
-1.0666937e-07
-3.3611996e-07
1.0981615e-07
3.6030295e-07
-9.6382209e-08
-3.2161319e-07
1.0191348e-07
3.4624207e-07
-8.6789812e-08
-3.0696392e-07
9.4154383e-08
3.3129711e-07
-7.7986741e-08
-2.9267204e-07
8.6656347e-08
3.1600114e-07
-7.003782e-08
-2.792524e-07
7.9598365e-08
3.0099563e-07
-6.2991398e-08
-2.6719244e-07
7.3254175e-08
2.8700229e-07
-5.6905093e-08
-2.5688574e-07
6.802166e-08
2.7474619e-07
-5.1887858e-08
-2.4856636e-07
6.442387e-08
2.6482535e-07
-4.8196575e-08
-2.4260803e-07
6.3062015e-08
2.5785726e-07
-4.6334077e-08
-2.4066304e-07
6.4385048e-08
2.5538578e-07
-4.7017355e-08
-2.465555e-07
6.8609724e-08
2.6042697e-07
)
;
    }
    procBoundary0to1throughfront
    {
        type            processorCyclic;
        value           nonuniform List<scalar> 
240
(
-2.4125289e-07
-2.448839e-07
-2.3366067e-07
-2.1396273e-07
-1.9299512e-07
-1.8108141e-07
-1.7724458e-07
-1.7758009e-07
-1.7858312e-07
-1.7879188e-07
-1.7810927e-07
-1.7682953e-07
-1.7540638e-07
-1.7425976e-07
-1.7372794e-07
-1.740431e-07
-1.7532377e-07
-1.775847e-07
-1.8075886e-07
-1.8472324e-07
-1.8932258e-07
-1.943881e-07
-1.9974958e-07
-2.0524217e-07
-2.1070932e-07
-2.1600357e-07
-2.2098627e-07
-2.2552703e-07
-2.2950346e-07
-2.3280144e-07
-2.3531583e-07
-2.3695157e-07
-2.3762517e-07
-2.3726633e-07
-2.3581977e-07
-2.3324706e-07
-2.2952844e-07
-2.2466441e-07
-2.1867724e-07
-2.1161208e-07
-2.0353767e-07
-1.9454661e-07
-1.8475489e-07
-1.743006e-07
-1.6334167e-07
-1.5205225e-07
-1.4061769e-07
-1.2922779e-07
-1.1806843e-07
-1.0731175e-07
-9.7105816e-08
-8.7565332e-08
-7.8766581e-08
-7.0751174e-08
-6.3544455e-08
-5.7193156e-08
-5.1827639e-08
-4.7776903e-08
-4.5660711e-08
-4.6241604e-08
-1.8063315e-07
-2.3405668e-07
-2.6801062e-07
-2.70841e-07
-2.5375913e-07
-2.3239733e-07
-2.1357377e-07
-1.9938618e-07
-1.8922624e-07
-1.8221112e-07
-1.7776078e-07
-1.7546709e-07
-1.7501453e-07
-1.7616911e-07
-1.7877378e-07
-1.8272837e-07
-1.8796101e-07
-1.9440325e-07
-2.0198534e-07
-2.1061895e-07
-2.2019432e-07
-2.3059501e-07
-2.4169965e-07
-2.5338495e-07
-2.6552739e-07
-2.780036e-07
-2.9068976e-07
-3.0346055e-07
-3.1618803e-07
-3.2874059e-07
-3.4098235e-07
-3.5277293e-07
-3.6396762e-07
-3.7441813e-07
-3.8397371e-07
-3.9248282e-07
-3.9979522e-07
-4.0576465e-07
-4.1025193e-07
-4.13129e-07
-4.1428329e-07
-4.1362311e-07
-4.1108318e-07
-4.0663211e-07
-4.0027939e-07
-3.9208351e-07
-3.8216012e-07
-3.7068965e-07
-3.5792344e-07
-3.441865e-07
-3.2987481e-07
-3.1544371e-07
-3.0138437e-07
-2.881864e-07
-2.7628411e-07
-2.6597519e-07
-2.5733804e-07
-2.5054185e-07
-2.4709075e-07
-2.5057321e-07
4.4016952e-07
4.6041398e-07
4.6554102e-07
4.5473039e-07
4.2992818e-07
4.031266e-07
3.7519871e-07
3.4507317e-07
3.1250401e-07
2.7903117e-07
2.4684751e-07
2.1780866e-07
1.9311187e-07
1.7326972e-07
1.583098e-07
1.4791414e-07
1.4154868e-07
1.3857029e-07
1.3830952e-07
1.4013337e-07
1.4347785e-07
1.4785242e-07
1.5285055e-07
1.5814266e-07
1.6346503e-07
1.686082e-07
1.7340637e-07
1.7772863e-07
1.8147205e-07
1.8455637e-07
1.8692018e-07
1.8851821e-07
1.8931952e-07
1.8930638e-07
1.8847332e-07
1.8682697e-07
1.8438553e-07
1.8117845e-07
1.7724594e-07
1.726382e-07
1.6741445e-07
1.616414e-07
1.5539149e-07
1.4874081e-07
1.4176667e-07
1.3454518e-07
1.2714912e-07
1.1964647e-07
1.1210057e-07
1.0457273e-07
9.7129012e-08
8.9852873e-08
8.2865712e-08
7.6355624e-08
7.061006e-08
6.6034618e-08
6.311717e-08
6.2298818e-08
6.3705301e-08
6.6669342e-08
5.0814869e-07
5.3609235e-07
5.452069e-07
5.1912368e-07
4.6986722e-07
4.1521554e-07
3.6381303e-07
3.1883217e-07
2.8038296e-07
2.4826457e-07
2.2231199e-07
2.0228062e-07
1.8770623e-07
1.7798483e-07
1.7249336e-07
1.7064046e-07
1.7188391e-07
1.757336e-07
1.8175079e-07
1.8954738e-07
1.9878492e-07
2.0917237e-07
2.2046254e-07
2.3244682e-07
2.4494878e-07
2.5781724e-07
2.7091781e-07
2.8413071e-07
2.9734469e-07
3.1045163e-07
3.233435e-07
3.3590997e-07
3.4803682e-07
3.5960489e-07
3.7048958e-07
3.8056121e-07
3.8968504e-07
3.9772268e-07
4.0453352e-07
4.0997692e-07
4.1391508e-07
4.1621683e-07
4.1676144e-07
4.154457e-07
4.1219027e-07
4.069487e-07
3.99718e-07
3.9055082e-07
3.7956896e-07
3.6697717e-07
3.5307592e-07
3.3827012e-07
3.2307057e-07
3.0808374e-07
2.9398079e-07
2.8141928e-07
2.7091442e-07
2.630078e-07
2.5929979e-07
2.6289955e-07
)
;
    }
}


// ************************************************************************* //
