/*--------------------------------*- C++ -*----------------------------------*\
| =========                 |                                                 |
| \\      /  F ield         | OpenFOAM: The Open Source CFD Toolbox           |
|  \\    /   O peration     | Version:  3.0.1                                 |
|   \\  /    A nd           | Web:      www.OpenFOAM.org                      |
|    \\/     M anipulation  |                                                 |
\*---------------------------------------------------------------------------*/
FoamFile
{
    version     2.0;
    format      ascii;
    class       surfaceScalarField;
    location    "325";
    object      phi;
}
// * * * * * * * * * * * * * * * * * * * * * * * * * * * * * * * * * * * * * //

dimensions      [0 3 -1 0 0 0 0];

internalField   nonuniform List<scalar> 
1072
(
0.10680984
1.371159e-06
3.1807503e-08
0.10680956
3.853337e-07
-1.4972449e-08
0.10680969
-2.272924e-08
2.6443261e-08
-2.4499278e-07
1.1334049e-08
0.033979991
7.797651e-07
4.8495064e-08
0.033980212
1.3539717e-07
5.426449e-09
0.033979702
3.1013412e-07
1.8510047e-08
5.9584518e-09
1.3892282e-08
-0.0055246248
2.9360785e-07
4.6313542e-08
-0.0055243214
-1.3708662e-07
2.3567634e-08
-0.0055247889
6.4596487e-07
9.6191333e-09
3.7981319e-07
1.1959417e-08
-0.02120917
-4.1533803e-07
4.7024951e-08
-0.021208537
-6.8225755e-07
3.4261965e-08
-0.021209256
1.2185083e-06
6.145908e-09
1.032546e-06
1.0929166e-08
-0.022218012
-8.4013014e-07
4.0076927e-08
-0.022217564
-1.0481286e-06
3.6566224e-08
-0.022217986
1.5394926e-06
4.7411802e-09
1.4676878e-06
1.1917517e-08
-0.015387356
-9.077828e-07
3.0342746e-08
-0.015387267
-1.0837727e-06
3.2804862e-08
-0.0153873
1.5284084e-06
4.7930518e-09
1.5319573e-06
1.2950666e-08
-0.0041094492
-7.5647617e-07
2.1392107e-08
-0.0041096318
-8.8747305e-07
2.7073387e-08
-0.0041094081
1.3104239e-06
5.4801948e-09
1.3347945e-06
1.3608506e-08
0.010160274
-5.1038057e-07
1.4328885e-08
0.010159953
-5.8562392e-07
2.0236195e-08
0.010160295
1.0024389e-06
5.9903503e-09
1.0126272e-06
1.3505831e-08
0.02670209
-2.3209649e-07
9.1808707e-09
0.026701716
-2.5207988e-07
1.392837e-08
0.026702096
6.6524839e-07
6.1030195e-09
6.4630532e-07
1.2586553e-08
0.045133436
4.5459374e-08
5.8310627e-09
0.045133058
7.6063307e-08
8.7721624e-09
0.04513343
3.3251912e-07
5.8793103e-09
2.7899618e-07
1.0915783e-08
0.065328318
2.9992511e-07
3.9271777e-09
0.065327965
3.7736584e-07
4.9090891e-09
0.065328301
2.7584097e-08
5.4664008e-09
-6.273196e-08
8.6828093e-09
0.087360889
5.186344e-07
2.9293724e-09
0.087360577
6.4034634e-07
2.2259671e-09
0.087360862
-2.3569151e-07
5.0358396e-09
-3.6430871e-07
6.5079242e-09
0.11142881
6.9790645e-07
2.5217812e-09
0.11142854
8.6252166e-07
5.0531651e-10
0.11142877
-4.5301181e-07
4.5915494e-09
-6.2124342e-07
4.4723716e-09
0.13778594
8.404807e-07
2.4389247e-09
0.13778571
1.0478789e-06
-4.9063374e-10
0.13778589
-6.2708978e-07
4.2004798e-09
-8.3649227e-07
2.6432234e-09
0.16670225
9.5174884e-07
2.4888845e-09
0.16670206
1.2032184e-06
-9.7684027e-10
0.1667022
-7.6372028e-07
3.8837391e-09
-1.0166203e-06
1.1102491e-09
0.19844835
1.0370052e-06
2.5507986e-09
0.19844819
1.3352679e-06
-1.1620562e-09
0.19844829
-8.6888425e-07
3.6416374e-09
-1.1685855e-06
-9.6056672e-11
0.23329406
1.1002621e-06
2.5608097e-09
0.23329392
1.4491283e-06
-1.0723772e-09
0.233294
-9.4743755e-07
3.4636057e-09
-1.2981016e-06
-9.8708246e-10
0.27151189
1.1441809e-06
2.4954629e-09
0.27151177
1.5481829e-06
-8.7248705e-10
0.27151182
-1.0029217e-06
3.3340459e-09
-1.4092782e-06
-1.600056e-09
0.31338034
1.1704693e-06
2.3562059e-09
0.31338024
1.6345465e-06
-6.3426421e-10
0.31338027
-1.03786e-06
3.2309135e-09
-1.5049058e-06
-1.984593e-09
0.3591853
1.1803073e-06
2.1571403e-09
0.35918521
1.7094532e-06
-3.7935305e-10
0.35918522
-1.0541676e-06
3.1528668e-09
-1.5868861e-06
-2.1927746e-09
0.40921975
1.1746292e-06
1.9168234e-09
0.40921968
1.773645e-06
-1.2408978e-10
0.40921967
-1.0534432e-06
3.1176655e-09
-1.6565571e-06
-2.2727308e-09
0.46378246
1.1542483e-06
1.6535465e-09
0.46378239
1.8275627e-06
1.2281334e-10
0.46378237
-1.0369788e-06
3.0897434e-09
-1.7148557e-06
-2.2652216e-09
0.52317628
1.119882e-06
1.3830476e-09
0.52317622
1.8713962e-06
3.5658984e-10
0.52317618
-1.0058605e-06
3.0684716e-09
-1.7623644e-06
-2.2028007e-09
0.5877066
1.0721419e-06
1.117742e-09
0.58770656
1.905066e-06
5.7481543e-10
0.58770651
-9.6097358e-07
3.0538265e-09
-1.7993011e-06
-2.110273e-09
0.65767994
1.0115312e-06
8.6676262e-10
0.65767991
1.9281943e-06
7.7652186e-10
0.65767984
-9.0301779e-07
3.0460322e-09
-1.8255027e-06
-2.0058501e-09
0.73340258
9.3846941e-07
6.3642393e-10
0.73340256
1.9400971e-06
9.6169838e-10
0.73340247
-8.3255006e-07
3.0451367e-09
-1.8404487e-06
-1.8922667e-09
0.8151793
8.5334614e-07
4.3075954e-10
0.81517929
1.939808e-06
1.1309852e-09
0.81517919
-7.5005126e-07
3.0508027e-09
-1.8432526e-06
-1.7976975e-09
0.90331188
7.5659217e-07
2.5193215e-10
0.90331188
1.9261316e-06
1.2854545e-09
0.90331178
-6.5601072e-07
3.0621672e-09
-1.832777e-06
-1.7168216e-09
0.99809736
6.4875762e-07
1.0064022e-10
0.99809739
1.8977163e-06
1.4264271e-09
0.99809727
-5.5101365e-07
3.0778813e-09
-1.8076993e-06
-1.6520158e-09
1.099826
5.3058588e-07
-2.3497333e-11
1.099826
1.8531379e-06
1.5553285e-09
1.0998259
-4.3582186e-07
3.0962359e-09
-1.7666023e-06
-1.6045493e-09
1.2087788
4.0307449e-07
-1.2164884e-10
1.2087788
1.7909849e-06
1.6735727e-09
1.2087787
-3.1143966e-07
3.1153107e-09
-1.7080669e-06
-1.5744528e-09
1.3252249
2.6751806e-07
-1.9554111e-10
1.3252249
1.7099399e-06
1.782472e-09
1.3252248
-1.7916041e-07
3.1331087e-09
-1.6307581e-06
-1.560839e-09
1.4494185
1.2553084e-07
-2.4727741e-10
1.4494186
1.6088552e-06
1.8831783e-09
1.4494184
-4.0591511e-08
3.1476666e-09
-1.5335046e-06
-1.5622266e-09
1.5815959
-2.09516e-08
-2.7919274e-10
1.581596
1.4868209e-06
1.976655e-09
1.5815958
1.0234207e-07
3.1571402e-09
-1.4153694e-06
-1.5768738e-09
1.7219719
-1.696904e-07
-2.9374034e-10
1.7219721
1.3432268e-06
2.0636742e-09
1.7219719
2.4741522e-07
3.15986e-09
-1.2757127e-06
-1.6034903e-09
1.870737
-3.1818017e-07
-2.93392e-10
1.8707372
1.1778192e-06
2.1448361e-09
1.870737
3.9213856e-07
3.1543727e-09
-1.114252e-06
-1.6382915e-09
2.0280535
-4.6370197e-07
-2.8057615e-10
2.0280537
9.9075341e-07
2.2206004e-09
2.0280535
5.3381199e-07
3.1394606e-09
-9.3111144e-07
-1.6805522e-09
2.1940526
-6.0339128e-07
-2.576171e-10
2.1940528
7.8264461e-07
2.2909235e-09
2.1940527
6.6959328e-07
3.114145e-09
-7.2687276e-07
-1.7285688e-09
2.3688315
-7.3431912e-07
-2.2669371e-10
2.3688317
5.5461463e-07
2.3569976e-09
2.3688316
7.9658003e-07
3.0776805e-09
-5.0262301e-07
-1.7808086e-09
2.5524501
-8.5358403e-07
-1.8980352e-10
2.5524503
3.0834184e-07
2.4185923e-09
2.5524502
9.1190299e-07
3.0295438e-09
-2.6000109e-07
-1.8359929e-09
2.7449288
-9.5841328e-07
-1.4873334e-10
2.744929
4.6108256e-08
2.476067e-09
2.7449289
1.0128284e-06
2.9694128e-09
-1.2443749e-09
-1.8930951e-09
2.9462458
-1.0462707e-06
-1.0503096e-10
2.9462461
-2.2915178e-07
2.5298572e-09
2.946246
1.0968668e-06
2.8972628e-09
2.7076338e-07
-1.9513068e-09
3.1563357
-1.114969e-06
-5.9981668e-11
3.156336
-5.1380239e-07
2.5805282e-09
3.1563359
1.1618851e-06
2.8128764e-09
5.5244375e-07
-2.0101567e-09
3.3750871
-1.1627812e-06
-1.4588641e-11
3.3750874
-8.0345384e-07
2.6288117e-09
3.3750873
1.2062176e-06
2.7165596e-09
8.3946936e-07
-2.0693181e-09
3.6023419
-1.1885497e-06
3.0425083e-11
3.6023422
-1.0929085e-06
2.6756527e-09
3.6023422
1.2287713e-06
2.6085877e-09
1.1267069e-06
-2.1287108e-09
3.8378945
-1.1917828e-06
7.4583012e-11
3.8378948
-1.3761047e-06
2.7222471e-09
3.8378948
1.2291175e-06
2.4893484e-09
1.4081545e-06
-2.1884336e-09
4.0814912
-1.1727351e-06
1.175653e-10
4.0814915
-1.6460588e-06
2.7700706e-09
4.0814915
1.2075626e-06
2.3593316e-09
1.6768743e-06
-2.2486815e-09
4.3328305
-1.1324575e-06
1.5903419e-10
4.3328307
-1.8948111e-06
2.8208787e-09
4.3328308
1.1651855e-06
2.2191169e-09
1.9249233e-06
-2.3095965e-09
4.5915636
-1.0728065e-06
1.9834396e-10
4.5915638
-2.1133807e-06
2.8766392e-09
4.5915639
1.1038294e-06
2.0693489e-09
2.143289e-06
-2.3710002e-09
4.8572956
-9.963954e-07
2.3411725e-10
4.8572958
-2.2917462e-06
2.9393196e-09
4.8572958
1.0260305e-06
1.9106446e-09
2.3218463e-06
-2.4319587e-09
5.1295868
-9.0647001e-07
2.6370244e-10
5.1295869
-2.4188754e-06
3.0103982e-09
5.129587
9.3487004e-07
1.7434023e-09
2.4493621e-06
-2.4901255e-09
5.407955
-8.0669121e-07
2.8261059e-10
5.407955
-2.482848e-06
3.0898923e-09
5.4079551
8.3373393e-07
1.5674149e-09
2.5135972e-06
-2.5408343e-09
5.6918777
-7.0081068e-07
2.8417867e-10
5.6918777
-2.4711421e-06
3.1746232e-09
5.6918778
7.259773e-07
1.3812561e-09
2.5015904e-06
-2.5759716e-09
5.9807954
-5.9224184e-07
2.5994784e-10
5.9807953
-2.3712017e-06
3.2553973e-09
5.9807954
6.1451298e-07
1.1816093e-09
2.4002633e-06
-2.5827768e-09
6.2741145
-4.8356417e-07
2.0153507e-10
6.2741142
-2.1715015e-06
3.3128469e-09
6.2741144
5.0139127e-07
9.6347815e-10
2.1976004e-06
-2.5428396e-09
6.571211
-3.7608643e-07
1.0497377e-10
6.5712107
-1.8635445e-06
3.3120348e-09
6.5712108
3.8753918e-07
7.2405015e-10
1.884892e-06
-2.4315524e-09
6.871435
-2.6980028e-07
-2.1935534e-11
6.8714346
-1.4457899e-06
3.1962446e-09
6.8714347
2.7304228e-07
4.7614418e-10
1.4610854e-06
-2.2187457e-09
7.1741147
-1.6439046e-07
-1.5291554e-10
7.1741141
-9.3162945e-07
2.8909417e-09
7.1741142
1.586754e-07
2.7810018e-10
9.4131771e-07
-1.8767645e-09
7.4785608
-6.4671508e-08
-2.4535848e-10
7.4785602
-3.8138046e-07
2.3421424e-09
7.4785603
5.235857e-08
2.4769157e-10
3.8909676e-07
-1.4261956e-09
7.7840718
-2.5230483e-10
7.7840714
1.3067329e-09
7.7840715
6.3109964e-10
-8.0419219e-10
0.10680963
2.7424012e-07
0.10680944
5.2002387e-07
0.10680954
-2.0471237e-07
-3.6259401e-07
0.033979562
-5.8288578e-08
0.03397982
2.803306e-07
0.033979364
1.5793452e-07
-1.1245433e-07
-0.0055247997
-3.9243568e-07
-0.005524495
-7.8384153e-08
-0.0055249006
5.3091525e-07
2.76906e-07
-0.021209246
-9.5224434e-07
-0.021208628
-7.2002336e-07
-0.021209278
1.1351098e-06
9.4485631e-07
-0.022217894
-1.2535939e-06
-0.022217471
-1.1514792e-06
-0.022217831
1.4790194e-06
1.3939291e-06
-0.015387195
-1.2190798e-06
-0.015387135
-1.216528e-06
-0.015387116
1.4807266e-06
1.4656996e-06
-0.0041093313
-9.822287e-07
-0.0041095408
-1.0199376e-06
-0.0041092759
1.2689793e-06
1.2691551e-06
0.010160341
-6.6724775e-07
0.010159998
-7.0183657e-07
0.010160371
9.6485145e-07
9.4493549e-07
0.02670212
-3.370091e-07
0.026701732
-3.4616937e-07
0.026702133
6.3157084e-07
5.7767943e-07
0.045133443
-2.2673064e-08
0.045133055
4.0805668e-09
0.045133442
3.0336473e-07
2.1191425e-07
0.065328307
2.5710712e-07
0.065327949
3.2475525e-07
0.065328294
3.2371419e-09
-1.2644012e-07
0.087360865
4.9242477e-07
0.087360552
6.0343563e-07
0.087360842
-2.5523339e-07
-4.2284643e-07
0.11142878
6.8208622e-07
0.11142851
8.3762563e-07
0.11142874
-4.6815926e-07
-6.7340968e-07
0.1377859
8.3080588e-07
0.13778568
1.0317661e-06
0.13778586
-6.3841969e-07
-8.8186282e-07
0.16670221
9.4545828e-07
0.16670202
1.1932913e-06
0.16670216
-7.7185553e-07
-1.0553629e-06
0.1984483
1.0324004e-06
0.19844815
1.3295022e-06
0.19844825
-8.7442867e-07
-1.201265e-06
0.23329401
1.0963704e-06
0.23329388
1.4461821e-06
0.23329395
-9.5093242e-07
-1.3254986e-06
0.27151184
1.1404904e-06
0.27151173
1.5471896e-06
0.27151178
-1.0048307e-06
-1.4322404e-06
0.31338029
1.1667361e-06
0.31338019
1.6349163e-06
0.31338022
-1.0385898e-06
-1.524242e-06
0.35918525
1.1764281e-06
0.35918517
1.710757e-06
0.35918517
-1.0540912e-06
-1.6033019e-06
0.4092197
1.1705659e-06
0.40921963
1.7756135e-06
0.40921962
-1.0527577e-06
-1.6706252e-06
0.4637824
1.1499869e-06
0.46378235
1.8300242e-06
0.46378232
-1.0358418e-06
-1.7270182e-06
0.52317622
1.1154137e-06
0.52317617
1.8742413e-06
0.52317613
-1.0044019e-06
-1.7729485e-06
0.58770655
1.0674558e-06
0.58770651
1.9082245e-06
0.58770645
-9.5930466e-07
-1.8085406e-06
0.65767988
1.0066141e-06
0.65767986
1.9316201e-06
0.65767978
-9.012377e-07
-1.8335594e-06
0.73340252
9.3330791e-07
0.73340251
1.9437572e-06
0.73340242
-8.3074982e-07
-1.8474014e-06
0.81517924
8.4792738e-07
0.81517924
1.9436754e-06
0.81517914
-7.4831753e-07
-1.8491738e-06
0.90331182
7.5090623e-07
0.90331183
1.9301795e-06
0.90331172
-6.5442653e-07
-1.8377076e-06
0.99809731
6.4279956e-07
0.99809734
1.9019145e-06
0.99809721
-5.4965851e-07
-1.8116585e-06
1.0998259
5.2435717e-07
1.099826
1.8574502e-06
1.0998258
-4.3477121e-07
-1.7695966e-06
1.2087787
3.9658397e-07
1.2087788
1.7953671e-06
1.2087786
-3.1076422e-07
-1.7100957e-06
1.3252248
2.6078255e-07
1.3252249
1.7143399e-06
1.3252247
-1.7892538e-07
-1.6318192e-06
1.4494184
1.185754e-07
1.4494185
1.6132129e-06
1.4494184
-4.0855962e-08
-1.5335973e-06
1.5815958
-2.8093615e-08
1.5815959
1.4910694e-06
1.5815958
1.0152573e-07
-1.4144975e-06
1.7219719
-1.7697751e-07
1.721972
1.3472938e-06
1.7219719
2.4600163e-07
-1.2738885e-06
1.870737
-3.2556287e-07
1.8707371
1.1816287e-06
1.870737
3.9008984e-07
-1.1114933e-06
2.0280535
-4.7112314e-07
2.0280537
9.9422793e-07
2.0280535
5.3109793e-07
-9.2744566e-07
2.1940526
-6.107867e-07
2.1940528
7.8570587e-07
2.1940526
6.6619156e-07
-7.2233788e-07
2.3688315
-7.4161783e-07
2.3688317
5.5718825e-07
2.3688315
7.9247649e-07
-4.9726804e-07
2.5524501
-8.6070893e-07
2.5524503
3.1035788e-07
2.5524502
9.0709194e-07
-2.5388641e-07
2.7449288
-9.6528173e-07
2.744929
4.75034e-08
2.7449289
1.007313e-06
5.5580468e-09
2.9462458
-1.0527955e-06
2.9462461
-2.2843209e-07
2.946246
1.0906597e-06
2.7817017e-07
3.1563357
-1.1210593e-06
3.156336
-5.1380214e-07
3.1563359
1.1550086e-06
5.6035985e-07
3.3750871
-1.1683449e-06
3.3750874
-8.0420471e-07
3.3750873
1.1987046e-06
8.4778883e-07
3.6023419
-1.193496e-06
3.6023422
-1.0944287e-06
3.6023422
1.2206658e-06
1.1353141e-06
3.8378945
-1.1960271e-06
3.8378948
-1.3783981e-06
3.8378948
1.2204754e-06
1.4169262e-06
4.0814912
-1.1762053e-06
4.0814915
-1.6491161e-06
4.0814915
1.1984519e-06
1.6856834e-06
4.3328305
-1.1351036e-06
4.3328308
-1.8986114e-06
4.3328308
1.1556858e-06
1.9336446e-06
4.5915636
-1.0746123e-06
4.5915639
-2.1178966e-06
4.5915639
1.0940304e-06
2.1518083e-06
4.8572956
-9.9739352e-07
4.8572958
-2.2969513e-06
4.8572959
1.0160282e-06
2.3300726e-06
5.1295868
-9.0675723e-07
5.129587
-2.424757e-06
5.129587
9.247609e-07
2.4572445e-06
5.407955
-8.0644119e-07
5.4079551
-2.4894244e-06
5.4079552
8.236059e-07
2.5211445e-06
5.6918778
-7.0027667e-07
5.6918778
-2.478485e-06
5.6918779
7.1590171e-07
2.5088905e-06
5.9807955
-5.917381e-07
5.9807954
-2.3794607e-06
5.9807955
6.0454708e-07
2.4074944e-06
6.2741145
-4.8341173e-07
6.2741143
-2.1809219e-06
6.2741144
4.9162148e-07
2.2050191e-06
6.5712111
-3.7651216e-07
6.5712107
-1.8744611e-06
6.5712108
3.7823781e-07
1.892771e-06
6.8714351
-2.7080718e-07
6.8714346
-1.4585755e-06
6.8714347
2.6508642e-07
1.4695735e-06
7.1741147
-1.6568782e-07
7.1741142
-9.4651045e-07
7.1741143
1.5455589e-07
9.5023444e-07
7.4785609
-6.594967e-08
7.4785603
-3.976893e-07
7.4785604
5.7110873e-08
3.976394e-07
7.7840719
7.7840714
7.7840715
)
;

boundaryField
{
    movingWall
    {
        type            calculated;
        value           uniform 0;
    }
    CPLReceiveMD
    {
        type            calculated;
        value           uniform 0;
    }
    streamwiseIn
    {
        type            cyclic;
        value           nonuniform List<scalar> 
120
(
-0.10680993
-0.033979496
0.0055250562
0.021209865
0.022218415
0.01538737
0.0041092086
-0.01016063
-0.02670248
-0.045133817
-0.065328661
-0.08736118
-0.11142904
-0.13778612
-0.16670239
-0.19844846
-0.23329414
-0.27151194
-0.31338037
-0.35918531
-0.40921975
-0.46378244
-0.52317624
-0.58770656
-0.65767988
-0.7334025
-0.81517921
-0.90331178
-0.99809726
-1.0998259
-1.2087787
-1.3252247
-1.4494183
-1.5815957
-1.7219718
-1.8707369
-2.0280534
-2.1940525
-2.3688314
-2.55245
-2.7449287
-2.9462458
-3.1563356
-3.375087
-3.6023419
-3.8378945
-4.0814912
-4.3328305
-4.5915637
-4.8572957
-5.1295869
-5.4079551
-5.6918779
-5.9807956
-6.2741146
-6.5712111
-6.8714351
-7.1741148
-7.4785609
-7.7840719
-0.10680981
-0.033979161
0.0055251688
0.021209884
0.022218259
0.015387193
0.00410909
-0.010160688
-0.026702498
-0.045133809
-0.065328637
-0.087361146
-0.111429
-0.13778608
-0.16670235
-0.19844841
-0.23329409
-0.2715119
-0.31338033
-0.35918527
-0.40921971
-0.46378239
-0.5231762
-0.58770651
-0.65767983
-0.73340245
-0.81517916
-0.90331173
-0.99809721
-1.0998258
-1.2087786
-1.3252247
-1.4494183
-1.5815957
-1.7219718
-1.8707368
-2.0280533
-2.1940525
-2.3688313
-2.55245
-2.7449286
-2.9462458
-3.1563356
-3.375087
-3.6023419
-3.8378945
-4.0814912
-4.3328306
-4.5915637
-4.8572957
-5.1295869
-5.4079551
-5.6918779
-5.9807956
-6.2741146
-6.5712112
-6.8714352
-7.1741149
-7.478561
-7.7840719
)
;
    }
    streamwiseOut
    {
        type            cyclic;
        value           nonuniform List<scalar> 
120
(
0.10680993
0.033979496
-0.0055250562
-0.021209865
-0.022218415
-0.01538737
-0.0041092086
0.01016063
0.02670248
0.045133817
0.065328661
0.08736118
0.11142904
0.13778612
0.16670239
0.19844846
0.23329414
0.27151194
0.31338037
0.35918531
0.40921975
0.46378244
0.52317624
0.58770656
0.65767988
0.7334025
0.81517921
0.90331178
0.99809726
1.0998259
1.2087787
1.3252247
1.4494183
1.5815957
1.7219718
1.8707369
2.0280534
2.1940525
2.3688314
2.55245
2.7449287
2.9462458
3.1563356
3.375087
3.6023419
3.8378945
4.0814912
4.3328305
4.5915637
4.8572957
5.1295869
5.4079551
5.6918779
5.9807956
6.2741146
6.5712111
6.8714351
7.1741148
7.4785609
7.7840719
0.10680981
0.033979161
-0.0055251688
-0.021209884
-0.022218259
-0.015387193
-0.00410909
0.010160688
0.026702498
0.045133809
0.065328637
0.087361146
0.111429
0.13778608
0.16670235
0.19844841
0.23329409
0.2715119
0.31338033
0.35918527
0.40921971
0.46378239
0.5231762
0.58770651
0.65767983
0.73340245
0.81517916
0.90331173
0.99809721
1.0998258
1.2087786
1.3252247
1.4494183
1.5815957
1.7219718
1.8707368
2.0280533
2.1940525
2.3688313
2.55245
2.7449286
2.9462458
3.1563356
3.375087
3.6023419
3.8378945
4.0814912
4.3328306
4.5915637
4.8572957
5.1295869
5.4079551
5.6918779
5.9807956
6.2741146
6.5712112
6.8714352
7.1741149
7.478561
7.7840719
)
;
    }
    front
    {
        type            cyclic;
        value           nonuniform 0();
    }
    back
    {
        type            cyclic;
        value           nonuniform 0();
    }
    procBoundary0to1
    {
        type            processor;
        value           nonuniform List<scalar> 
240
(
2.6945243e-08
1.12666e-09
-1.4947871e-08
-2.9715796e-08
4.1638291e-08
5.4190786e-10
2.292882e-09
-1.386067e-08
2.6168859e-08
-8.0210485e-09
1.252708e-08
-1.4518815e-09
1.6505025e-08
-1.4066498e-08
1.5505717e-08
5.3080846e-09
1.2553453e-08
-1.5558458e-08
1.5058053e-08
7.4516728e-09
1.1571586e-08
-1.2946994e-08
1.2488024e-08
6.8932244e-09
1.1071767e-08
-8.733973e-09
9.2278362e-09
4.7971393e-09
1.0565204e-08
-4.4889652e-09
6.2151515e-09
2.542489e-09
9.8392688e-09
-9.1491679e-10
3.8142727e-09
8.2829704e-10
8.8190484e-09
1.6814362e-09
2.0345352e-09
-1.1061453e-10
7.1335054e-09
3.3065654e-09
7.4739672e-10
-1.6151983e-10
5.2721318e-09
4.1223822e-09
-1.8577591e-10
1.6541227e-10
3.5017655e-09
4.3355684e-09
-8.4959759e-10
6.7247865e-10
1.9546607e-09
4.1435275e-09
-1.3390115e-09
1.2637337e-09
6.9963953e-10
3.7102059e-09
-1.7122435e-09
1.8256248e-09
-2.4561119e-10
3.1580757e-09
-2.0057517e-09
2.28486e-09
-8.9925586e-10
2.5714581e-09
-2.2408487e-09
2.608976e-09
-1.3008174e-09
1.9951895e-09
-2.4299026e-09
2.7961082e-09
-1.4990604e-09
1.442953e-09
-2.5805852e-09
2.8632264e-09
-1.5432931e-09
9.8985004e-10
-2.6544632e-09
2.8361959e-09
-1.4779014e-09
5.7461581e-10
-2.7394968e-09
2.7427145e-09
-1.3400931e-09
2.078595e-10
-2.8084966e-09
2.6078395e-09
-1.1594067e-09
-1.1482729e-10
-2.861159e-09
2.4521685e-09
-9.5827141e-10
-3.9851335e-10
-2.9017284e-09
2.2914477e-09
-7.5308393e-10
-6.4816318e-10
-2.9347332e-09
2.1366545e-09
-5.5538536e-10
-8.6833296e-10
-2.9638084e-09
1.9907123e-09
-3.7296801e-10
-1.0631044e-09
-2.9914126e-09
1.870784e-09
-2.1068952e-10
-1.2361073e-09
-3.018798e-09
1.7704125e-09
-7.1178608e-11
-1.3905472e-09
-3.0461964e-09
1.6912038e-09
4.4568637e-11
-1.529231e-09
-3.0730682e-09
1.6331885e-09
1.3674028e-10
-1.6545805e-09
-3.098352e-09
1.5953837e-09
2.0636698e-10
-1.7686416e-09
-3.1206789e-09
1.5761397e-09
2.5505755e-10
-1.8730992e-09
-3.1385434e-09
1.5734099e-09
2.8479535e-10
-1.9693034e-09
-3.150434e-09
1.5849509e-09
2.9778349e-10
-2.0583071e-09
-3.1549241e-09
1.6088882e-09
2.9631616e-10
-2.1409142e-09
-3.1507355e-09
1.6422178e-09
2.826956e-10
-2.2177356e-09
-3.1367777e-09
1.6834113e-09
2.5915645e-10
-2.2890487e-09
-3.1121647e-09
1.7306537e-09
2.2781369e-10
-2.3556297e-09
-3.0762183e-09
1.7823317e-09
1.9061948e-10
-2.417592e-09
-3.0284644e-09
1.8371081e-09
1.4932837e-10
-2.4753331e-09
-2.9686172e-09
1.8939139e-09
1.0546505e-10
-2.5293169e-09
-2.8967538e-09
1.9519101e-09
6.0298331e-11
-2.5801289e-09
-2.8125028e-09
2.010603e-09
1.4819437e-11
-2.6285152e-09
-2.7162857e-09
2.0696498e-09
-3.0257103e-11
-2.6754314e-09
-2.6083871e-09
2.1289586e-09
-7.4460949e-11
-2.7220812e-09
-2.4892018e-09
2.1886197e-09
-1.1747685e-10
-2.7699455e-09
-2.3592247e-09
2.2488222e-09
-1.5897039e-10
-2.820784e-09
-2.2190392e-09
2.3097036e-09
-1.9829828e-10
-2.8765671e-09
-2.0692926e-09
2.3710825e-09
-2.3408477e-10
-2.9392643e-09
-1.910604e-09
2.4320223e-09
-2.6367948e-10
-3.0103556e-09
-1.7433731e-09
2.490175e-09
-2.8259448e-10
-3.0898592e-09
-1.567394e-09
2.5408732e-09
-2.8416768e-10
-3.1745972e-09
-1.3812413e-09
2.5760026e-09
-2.5994052e-10
-3.2553766e-09
-1.1815989e-09
2.5828018e-09
-2.015304e-10
-3.3128304e-09
-9.6347085e-10
2.5428601e-09
-1.04971e-10
-3.3120216e-09
-7.2404515e-10
2.4315694e-09
2.1936871e-11
-3.196234e-09
-4.7614065e-10
2.2187599e-09
1.5291578e-10
-2.8909333e-09
-2.7809763e-10
1.8767763e-09
2.4535776e-10
-2.3421361e-09
-2.4768967e-10
1.4262048e-09
2.5230288e-10
-1.3067295e-09
-6.3109881e-10
8.041981e-10
)
;
    }
    procBoundary0to1throughfront
    {
        type            processorCyclic;
        value           nonuniform List<scalar> 
240
(
3.1391031e-08
4.5331529e-08
4.1139168e-08
4.0228877e-08
3.2707433e-08
2.3193607e-08
1.5011446e-08
8.9713581e-09
4.8829994e-09
2.37298e-09
1.4153204e-09
1.0885919e-09
1.1955338e-09
1.4971394e-09
1.828026e-09
2.0914116e-09
2.2436696e-09
2.2774143e-09
2.2064561e-09
2.0540916e-09
1.8455496e-09
1.6038567e-09
1.3480487e-09
1.0928011e-09
8.4877524e-10
6.2330606e-10
4.2110166e-10
2.4476944e-10
9.5301073e-11
-2.7489603e-11
-1.2463901e-10
-1.9778171e-10
-2.4895528e-10
-2.8044724e-10
-2.946761e-10
-2.9408838e-10
-2.8109341e-10
-2.5800094e-10
-2.2697863e-10
-1.9001557e-10
-1.4889194e-10
-1.0515046e-10
-6.0072724e-11
-1.4659055e-11
3.036962e-11
7.4538524e-11
1.1752909e-10
1.5900436e-10
1.9831918e-10
2.3409644e-10
2.6368468e-10
2.825953e-10
2.8416561e-10
2.599364e-10
2.0152507e-10
1.0496485e-10
-2.1943475e-11
-1.5292243e-10
-2.4536448e-10
-2.5231015e-10
-2.1919659e-08
-9.5013058e-10
1.8350076e-08
3.0290657e-08
3.383501e-08
3.104326e-08
2.5979267e-08
1.968028e-08
1.3741805e-08
8.8229941e-09
5.0991621e-09
2.4856553e-09
7.8801788e-10
-2.1408665e-10
-7.2317977e-10
-9.0828376e-10
-8.9667899e-10
-7.2186812e-10
-5.1132503e-10
-2.8180041e-10
-4.7829841e-11
1.8183199e-10
4.0186917e-10
6.092567e-10
8.0249212e-10
9.8110922e-10
1.145365e-09
1.2960121e-09
1.4341083e-09
1.5608655e-09
1.6775262e-09
1.7852672e-09
1.8851345e-09
1.9780095e-09
2.0646021e-09
2.1454651e-09
2.2210256e-09
2.2914304e-09
2.3573564e-09
2.4188461e-09
2.4762466e-09
2.5299848e-09
2.5806195e-09
2.6288776e-09
2.6757008e-09
2.7222829e-09
2.7700976e-09
2.8208995e-09
2.8766555e-09
2.9393327e-09
3.0104089e-09
3.0899012e-09
3.1746309e-09
3.2554041e-09
3.3128529e-09
3.3120402e-09
3.1962493e-09
2.8909456e-09
2.3421456e-09
1.3067349e-09
1.4259442e-08
4.9538243e-09
-3.5160023e-09
-6.0041929e-09
-5.6864483e-09
-3.8129309e-09
-1.3778253e-09
6.9342791e-10
2.1143999e-09
2.9405766e-09
3.3566657e-09
3.5410649e-09
3.5518779e-09
3.4889334e-09
3.4037801e-09
3.3220407e-09
3.2530699e-09
3.1962674e-09
3.140621e-09
3.09204e-09
3.0775996e-09
3.0631351e-09
3.0505756e-09
3.0415879e-09
3.0374959e-09
3.0390576e-09
3.0463837e-09
3.0588946e-09
3.0754205e-09
3.0943648e-09
3.1138781e-09
3.132008e-09
3.1468204e-09
3.1564907e-09
3.159363e-09
3.1539937e-09
3.1391726e-09
3.1139266e-09
3.0775151e-09
3.0294186e-09
2.9693177e-09
2.8972682e-09
2.8128791e-09
2.7165597e-09
2.6085855e-09
2.4893445e-09
2.3593262e-09
2.2191104e-09
2.0693416e-09
1.9106369e-09
1.7433945e-09
1.5674073e-09
1.3812488e-09
1.1816023e-09
9.6347159e-10
7.2404404e-10
4.761386e-10
2.7809543e-10
2.4768788e-10
6.3109724e-10
2.3113963e-09
4.5738313e-09
3.29316e-09
3.4872307e-09
6.0546628e-09
8.6586188e-09
1.0740324e-08
1.1771217e-08
1.1667392e-08
1.057655e-08
8.7167432e-09
6.7612925e-09
4.822218e-09
3.0218841e-09
1.4769063e-09
2.3657924e-10
-6.9808593e-10
-1.3566368e-09
-1.7843148e-09
-2.0310193e-09
-2.1440283e-09
-2.1640752e-09
-2.1241359e-09
-2.049644e-09
-1.9594844e-09
-1.8602635e-09
-1.7743863e-09
-1.6996306e-09
-1.6393366e-09
-1.5952324e-09
-1.567638e-09
-1.5558773e-09
-1.558626e-09
-1.5741901e-09
-1.60103e-09
-1.6364915e-09
-1.6792395e-09
-1.7276134e-09
-1.7801142e-09
-1.8354884e-09
-1.8927282e-09
-1.9510396e-09
-2.0099615e-09
-2.0691748e-09
-2.1286049e-09
-2.1883547e-09
-2.2486221e-09
-2.3095512e-09
-2.3709652e-09
-2.4319313e-09
-2.4901035e-09
-2.5408167e-09
-2.5759574e-09
-2.5827651e-09
-2.5428298e-09
-2.4315439e-09
-2.2187384e-09
-1.8767583e-09
-1.4261902e-09
-8.041879e-10
)
;
    }
}


// ************************************************************************* //
