/*--------------------------------*- C++ -*----------------------------------*\
| =========                 |                                                 |
| \\      /  F ield         | OpenFOAM: The Open Source CFD Toolbox           |
|  \\    /   O peration     | Version:  3.0.x                                 |
|   \\  /    A nd           | Web:      www.OpenFOAM.org                      |
|    \\/     M anipulation  |                                                 |
\*---------------------------------------------------------------------------*/
FoamFile
{
    version     2.0;
    format      ascii;
    class       volScalarField;
    location    "150";
    object      p;
}
// * * * * * * * * * * * * * * * * * * * * * * * * * * * * * * * * * * * * * //

dimensions      [0 2 -2 0 0 0 0];

internalField   nonuniform List<scalar> 
960
(
-6.5557665e-08
-8.4955624e-08
-2.3213576e-07
-2.2924916e-07
-8.0169452e-08
-8.3493248e-08
-2.2303556e-07
-2.3190947e-07
-9.2211795e-08
-8.6825214e-08
-2.1897291e-07
-2.3100816e-07
-1.0445056e-07
-9.6000552e-08
-2.1360063e-07
-2.2182169e-07
-1.0490993e-07
-1.0078214e-07
-2.112075e-07
-2.1283338e-07
-9.9458328e-08
-1.0056195e-07
-2.0857663e-07
-2.0444768e-07
-9.4265911e-08
-9.8887795e-08
-2.0177896e-07
-1.943289e-07
-9.0906518e-08
-9.7152536e-08
-1.9137315e-07
-1.8263738e-07
-8.9279123e-08
-9.5744428e-08
-1.7902094e-07
-1.7032975e-07
-8.8893961e-08
-9.4760696e-08
-1.661588e-07
-1.5825284e-07
-8.9264635e-08
-9.4184885e-08
-1.5376027e-07
-1.4697133e-07
-9.0026532e-08
-9.3954644e-08
-1.4237663e-07
-1.3678653e-07
-9.0947704e-08
-9.4001003e-08
-1.3224951e-07
-1.2780233e-07
-9.1903144e-08
-9.4268125e-08
-1.2342267e-07
-1.1999497e-07
-9.2842563e-08
-9.4719888e-08
-1.1582707e-07
-1.1326864e-07
-9.3762257e-08
-9.5339065e-08
-1.0933743e-07
-1.0749369e-07
-9.4686244e-08
-9.6123245e-08
-1.0380685e-07
-1.0252877e-07
-9.5651508e-08
-9.7079735e-08
-9.9086949e-08
-9.823895e-08
-9.6698e-08
-9.8221026e-08
-9.5038397e-08
-9.450077e-08
-9.7862431e-08
-9.9562293e-08
-9.1535816e-08
-9.1204033e-08
-9.9174675e-08
-1.0111706e-07
-8.8469424e-08
-8.8251278e-08
-1.0065616e-07
-1.0289605e-07
-8.5745047e-08
-8.5554859e-08
-1.0231938e-07
-1.0490629e-07
-8.3283418e-08
-8.3037649e-08
-1.0416832e-07
-1.0715086e-07
-8.1018617e-08
-8.0632862e-08
-1.0619914e-07
-1.0962891e-07
-7.8896565e-08
-7.8282933e-08
-1.0840124e-07
-1.1233623e-07
-7.6876369e-08
-7.5939048e-08
-1.1075821e-07
-1.1526573e-07
-7.4926809e-08
-7.3560784e-08
-1.1324862e-07
-1.1840481e-07
-7.30261e-08
-7.1115922e-08
-1.1584692e-07
-1.2173859e-07
-7.1161304e-08
-6.8580382e-08
-1.1852404e-07
-1.25249e-07
-6.932769e-08
-6.5938215e-08
-1.2124794e-07
-1.2891452e-07
-6.7528059e-08
-6.3181598e-08
-1.2398409e-07
-1.3270998e-07
-6.5771994e-08
-6.0310812e-08
-1.2669594e-07
-1.3660629e-07
-6.4075001e-08
-5.7334163e-08
-1.2934545e-07
-1.4057021e-07
-6.2457538e-08
-5.4267828e-08
-1.3189371e-07
-1.4456422e-07
-6.0943935e-08
-5.1135595e-08
-1.3430166e-07
-1.485463e-07
-5.9561205e-08
-4.796848e-08
-1.3653095e-07
-1.5247063e-07
-5.8337786e-08
-4.4804186e-08
-1.385449e-07
-1.5628771e-07
-5.730221e-08
-4.1686381e-08
-1.4030954e-07
-1.599451e-07
-5.6481777e-08
-3.8663757e-08
-1.4179467e-07
-1.6338841e-07
-5.5901258e-08
-3.5788864e-08
-1.4297494e-07
-1.6656259e-07
-5.558171e-08
-3.3116687e-08
-1.4383075e-07
-1.6941357e-07
-5.5539436e-08
-3.0702967e-08
-1.4434911e-07
-1.7189009e-07
-5.5785151e-08
-2.8602253e-08
-1.4452423e-07
-1.7394594e-07
-5.6323423e-08
-2.6865695e-08
-1.4435796e-07
-1.7554236e-07
-5.7152329e-08
-2.5538582e-08
-1.4385993e-07
-1.7665082e-07
-5.8263415e-08
-2.465762e-08
-1.4304758e-07
-1.7725594e-07
-5.9641804e-08
-2.4247938e-08
-1.4194595e-07
-1.7735862e-07
-6.1266378e-08
-2.431981e-08
-1.4058754e-07
-1.7697942e-07
-6.3109782e-08
-2.4865009e-08
-1.390121e-07
-1.7616177e-07
-6.5138011e-08
-2.5852825e-08
-1.3726671e-07
-1.7497512e-07
-6.7309211e-08
-2.7225747e-08
-1.3540626e-07
-1.7351757e-07
-6.9571349e-08
-2.8894962e-08
-1.3349473e-07
-1.7191832e-07
-7.1858375e-08
-3.0735456e-08
-1.3160785e-07
-1.7034074e-07
-7.4084832e-08
-3.2580269e-08
-1.2983612e-07
-1.689827e-07
-7.6140725e-08
-3.421839e-08
-1.2828484e-07
-1.6805753e-07
-7.7891904e-08
-3.5414439e-08
-1.2707636e-07
-1.6776788e-07
-7.918407e-08
-3.5940285e-08
-1.2640499e-07
-1.6847782e-07
-7.9799659e-08
-3.541468e-08
-1.2666866e-07
-1.7129539e-07
-7.9357341e-08
-3.2729804e-08
-1.2823099e-07
-1.7743369e-07
-7.7471111e-08
-2.6711295e-08
-8.8287819e-08
-1.07153e-07
-2.1223872e-07
-2.255703e-07
-8.868355e-08
-9.3832352e-08
-2.1218507e-07
-2.3143029e-07
-8.8237776e-08
-8.4446191e-08
-2.1462613e-07
-2.3270407e-07
-9.3033442e-08
-8.6669327e-08
-2.1078799e-07
-2.2268978e-07
-9.2564913e-08
-8.8991948e-08
-2.0863103e-07
-2.1240416e-07
-8.9242442e-08
-8.966272e-08
-2.0540571e-07
-2.0276987e-07
-8.6826641e-08
-9.0307441e-08
-1.9824787e-07
-1.9203269e-07
-8.583373e-08
-9.1113646e-08
-1.8793183e-07
-1.8039667e-07
-8.5931145e-08
-9.1926991e-08
-1.7598317e-07
-1.6856727e-07
-8.6721687e-08
-9.2668636e-08
-1.6366457e-07
-1.5712018e-07
-8.7882139e-08
-9.3325839e-08
-1.5182943e-07
-1.4642984e-07
-8.9190971e-08
-9.390279e-08
-1.4096683e-07
-1.3669701e-07
-9.0517551e-08
-9.4422693e-08
-1.3129587e-07
-1.2799314e-07
-9.1804975e-08
-9.4918901e-08
-1.228594e-07
-1.2030365e-07
-9.3034906e-08
-9.5430299e-08
-1.155963e-07
-1.1356128e-07
-9.4213806e-08
-9.5998528e-08
-1.0939136e-07
-1.0767079e-07
-9.5376514e-08
-9.6665454e-08
-1.0410715e-07
-1.0252454e-07
-9.6564611e-08
-9.7470427e-08
-9.9603117e-08
-9.801419e-08
-9.7819557e-08
-9.8448101e-08
-9.5746218e-08
-9.4037249e-08
-9.9177904e-08
-9.9626571e-08
-9.2416028e-08
-9.0498336e-08
-1.0066835e-07
-1.0102772e-07
-8.9506565e-08
-8.7303205e-08
-1.0231083e-07
-1.0266701e-07
-8.6925975e-08
-8.4371638e-08
-1.0411633e-07
-1.0455386e-07
-8.4597314e-08
-8.1633292e-08
-1.0608745e-07
-1.0669233e-07
-8.2457366e-08
-7.9025904e-08
-1.0821923e-07
-1.0908233e-07
-8.0454772e-08
-7.6495076e-08
-1.105002e-07
-1.1171779e-07
-7.8547513e-08
-7.3994051e-08
-1.1291337e-07
-1.145893e-07
-7.6704093e-08
-7.1483672e-08
-1.1543724e-07
-1.1768549e-07
-7.4902343e-08
-6.8932415e-08
-1.1804648e-07
-1.2099133e-07
-7.3128665e-08
-6.6316462e-08
-1.2071254e-07
-1.2448854e-07
-7.137735e-08
-6.3619782e-08
-1.2340414e-07
-1.2815543e-07
-6.964988e-08
-6.0834193e-08
-1.2608776e-07
-1.3196672e-07
-6.7954221e-08
-5.7959377e-08
-1.2872804e-07
-1.3589328e-07
-6.6304023e-08
-5.5002828e-08
-1.3128833e-07
-1.3990186e-07
-6.4717737e-08
-5.1979704e-08
-1.3373128e-07
-1.4395495e-07
-6.321762e-08
-4.8912565e-08
-1.3601956e-07
-1.4801094e-07
-6.1828653e-08
-4.5830981e-08
-1.3811671e-07
-1.5202389e-07
-6.0577357e-08
-4.2770977e-08
-1.3998808e-07
-1.5594415e-07
-5.9490599e-08
-3.9774286e-08
-1.4160187e-07
-1.5971912e-07
-5.8594362e-08
-3.6887411e-08
-1.4293011e-07
-1.6329411e-07
-5.7912579e-08
-3.4160447e-08
-1.4394975e-07
-1.6661367e-07
-5.7466047e-08
-3.1645671e-08
-1.446435e-07
-1.696231e-07
-5.7271499e-08
-2.9395886e-08
-1.4500057e-07
-1.722704e-07
-5.7340862e-08
-2.7462518e-08
-1.4501726e-07
-1.7450836e-07
-5.7680779e-08
-2.5893473e-08
-1.4469725e-07
-1.7629706e-07
-5.8292341e-08
-2.4730763e-08
-1.4405169e-07
-1.7760657e-07
-5.9171081e-08
-2.4007885e-08
-1.4309911e-07
-1.7841987e-07
-6.0307113e-08
-2.3746954e-08
-1.4186518e-07
-1.7873593e-07
-6.1685268e-08
-2.395556e-08
-1.4038243e-07
-1.7857294e-07
-6.3285044e-08
-2.4623243e-08
-1.3869004e-07
-1.7797131e-07
-6.5079999e-08
-2.5717672e-08
-1.3683395e-07
-1.7699641e-07
-6.7036256e-08
-2.7180461e-08
-1.3486737e-07
-1.7574064e-07
-6.9109706e-08
-2.8922846e-08
-1.3285239e-07
-1.7432519e-07
-7.1241555e-08
-3.0821054e-08
-1.3086304e-07
-1.7290239e-07
-7.3352283e-08
-3.2710934e-08
-1.28989e-07
-1.7165556e-07
-7.5336135e-08
-3.4386419e-08
-1.2733661e-07
-1.7078028e-07
-7.7062351e-08
-3.5619861e-08
-1.2603208e-07
-1.7046154e-07
-7.8382074e-08
-3.619305e-08
-1.2527559e-07
-1.7105144e-07
-7.9092253e-08
-3.573336e-08
-1.2547168e-07
-1.7366112e-07
-7.8819584e-08
-3.3121807e-08
-1.269729e-07
-1.7945878e-07
-7.7237498e-08
-2.7196192e-08
-8.2251275e-08
-9.81779e-08
-2.2523853e-07
-2.4829097e-07
-9.1152703e-08
-8.9004566e-08
-2.1381798e-07
-2.4367872e-07
-9.4265663e-08
-8.5616418e-08
-2.089321e-07
-2.3498322e-07
-9.7541668e-08
-8.9999838e-08
-2.0350195e-07
-2.1950128e-07
-9.457428e-08
-9.2265675e-08
-2.0194075e-07
-2.066712e-07
-8.868738e-08
-9.1296334e-08
-2.0039081e-07
-1.9655768e-07
-8.4596314e-08
-9.0006371e-08
-1.9474706e-07
-1.8616405e-07
-8.287671e-08
-8.926061e-08
-1.8548103e-07
-1.7504557e-07
-8.2900874e-08
-8.9083225e-08
-1.7418704e-07
-1.6371913e-07
-8.3970089e-08
-8.934647e-08
-1.6226847e-07
-1.527494e-07
-8.5539367e-08
-8.9902494e-08
-1.5068344e-07
-1.4253783e-07
-8.7249353e-08
-9.0633689e-08
-1.3998016e-07
-1.3330364e-07
-8.8900265e-08
-9.1465907e-08
-1.3040676e-07
-1.2511963e-07
-9.0400888e-08
-9.2357724e-08
-1.2202057e-07
-1.1796032e-07
-9.1734588e-08
-9.3295798e-08
-1.147692e-07
-1.1174389e-07
-9.2949507e-08
-9.4287713e-08
-1.0854438e-07
-1.063618e-07
-9.4092919e-08
-9.5353862e-08
-1.0321504e-07
-1.0170188e-07
-9.5220302e-08
-9.6521457e-08
-9.8646758e-08
-9.7645899e-08
-9.6385841e-08
-9.7819657e-08
-9.4711508e-08
-9.4081305e-08
-9.7636996e-08
-9.9276214e-08
-9.1292949e-08
-9.0904508e-08
-9.9012214e-08
-1.0091502e-07
-8.8289158e-08
-8.8037678e-08
-1.0053928e-07
-1.0275488e-07
-8.5612373e-08
-8.5403179e-08
-1.0223541e-07
-1.0480899e-07
-8.3186679e-08
-8.293051e-08
-1.0410802e-07
-1.0708498e-07
-8.0948243e-08
-8.0557561e-08
-1.0615581e-07
-1.0958402e-07
-7.8846101e-08
-7.8230286e-08
-1.0837006e-07
-1.1230585e-07
-7.6840374e-08
-7.5902444e-08
-1.107357e-07
-1.1524468e-07
-7.4901185e-08
-7.3535485e-08
-1.1323232e-07
-1.1839022e-07
-7.3007865e-08
-7.1098551e-08
-1.1583509e-07
-1.2172853e-07
-7.1148319e-08
-6.8568545e-08
-1.1851544e-07
-1.252421e-07
-6.9318433e-08
-6.5930219e-08
-1.2124167e-07
-1.2890983e-07
-6.7521454e-08
-6.3176252e-08
-1.2397951e-07
-1.3270685e-07
-6.5767278e-08
-6.0307283e-08
-1.2669259e-07
-1.3660424e-07
-6.4071632e-08
-5.733187e-08
-1.29343e-07
-1.4056891e-07
-6.245513e-08
-5.4266367e-08
-1.3189192e-07
-1.4456337e-07
-6.0942212e-08
-5.1134687e-08
-1.3430035e-07
-1.4854575e-07
-5.9559973e-08
-4.7967936e-08
-1.3652999e-07
-1.5247028e-07
-5.8336904e-08
-4.4803879e-08
-1.385442e-07
-1.562875e-07
-5.7301581e-08
-4.1686222e-08
-1.4030902e-07
-1.5994497e-07
-5.6481328e-08
-3.866369e-08
-1.417943e-07
-1.6338834e-07
-5.5900939e-08
-3.578885e-08
-1.4297466e-07
-1.6656256e-07
-5.5581484e-08
-3.3116702e-08
-1.4383055e-07
-1.6941356e-07
-5.5539276e-08
-3.0702996e-08
-1.4434896e-07
-1.718901e-07
-5.578504e-08
-2.8602287e-08
-1.4452413e-07
-1.7394594e-07
-5.6323345e-08
-2.6865729e-08
-1.4435789e-07
-1.7554237e-07
-5.7152275e-08
-2.5538613e-08
-1.4385989e-07
-1.7665083e-07
-5.8263379e-08
-2.4657647e-08
-1.4304754e-07
-1.7725595e-07
-5.964178e-08
-2.424796e-08
-1.4194593e-07
-1.7735863e-07
-6.1266363e-08
-2.4319827e-08
-1.4058752e-07
-1.7697942e-07
-6.3109772e-08
-2.4865022e-08
-1.3901209e-07
-1.7616177e-07
-6.5138005e-08
-2.5852835e-08
-1.3726671e-07
-1.7497512e-07
-6.7309208e-08
-2.7225755e-08
-1.3540626e-07
-1.7351758e-07
-6.9571348e-08
-2.8894967e-08
-1.3349473e-07
-1.7191832e-07
-7.1858375e-08
-3.0735459e-08
-1.3160785e-07
-1.7034075e-07
-7.4084833e-08
-3.2580272e-08
-1.2983612e-07
-1.689827e-07
-7.6140726e-08
-3.4218393e-08
-1.2828484e-07
-1.6805753e-07
-7.7891905e-08
-3.541444e-08
-1.2707636e-07
-1.6776788e-07
-7.9184071e-08
-3.5940286e-08
-1.2640499e-07
-1.6847782e-07
-7.9799661e-08
-3.541468e-08
-1.2666867e-07
-1.7129539e-07
-7.9357343e-08
-3.2729804e-08
-1.2823099e-07
-1.7743369e-07
-7.7471113e-08
-2.6711295e-08
-8.7679285e-08
-1.1364811e-07
-2.2167344e-07
-2.3472568e-07
-8.9460839e-08
-9.9617505e-08
-2.2193236e-07
-2.405569e-07
-9.0668194e-08
-8.9263269e-08
-2.2407797e-07
-2.4119235e-07
-9.6777511e-08
-9.0451304e-08
-2.1939284e-07
-2.2999266e-07
-9.6931322e-08
-9.1812362e-08
-2.160781e-07
-2.1826041e-07
-9.3620031e-08
-9.1668062e-08
-2.1158597e-07
-2.0718595e-07
-9.0813165e-08
-9.1666718e-08
-2.0320165e-07
-1.9518099e-07
-8.9231907e-08
-9.1988289e-08
-1.917956e-07
-1.8252077e-07
-8.8691982e-08
-9.2454277e-08
-1.7893009e-07
-1.6991746e-07
-8.8884559e-08
-9.2954476e-08
-1.6586658e-07
-1.5791817e-07
-8.9529455e-08
-9.3445261e-08
-1.5344219e-07
-1.4685457e-07
-9.0418075e-08
-9.3920567e-08
-1.4212536e-07
-1.3688348e-07
-9.1414568e-08
-9.4383691e-08
-1.3211291e-07
-1.2803744e-07
-9.2443122e-08
-9.4852642e-08
-1.2342532e-07
-1.2027033e-07
-9.3480795e-08
-9.5355417e-08
-1.1598142e-07
-1.134918e-07
-9.4520255e-08
-9.5925946e-08
-1.0964904e-07
-1.0759039e-07
-9.5583851e-08
-9.6600887e-08
-1.0427703e-07
-1.0244595e-07
-9.6702845e-08
-9.7416204e-08
-9.9713649e-08
-9.794507e-08
-9.7910397e-08
-9.8404549e-08
-9.5817371e-08
-9.3980458e-08
-9.9236707e-08
-9.959283e-08
-9.2461399e-08
-9.0454276e-08
-1.0070579e-07
-1.0100238e-07
-8.9534697e-08
-8.7270189e-08
-1.0233421e-07
-1.0264851e-07
-8.6942859e-08
-8.4347788e-08
-1.0413058e-07
-1.0454076e-07
-8.4607275e-08
-8.16167e-08
-1.0609584e-07
-1.0668336e-07
-8.2463225e-08
-7.9014831e-08
-1.0822392e-07
-1.0907642e-07
-8.0457856e-08
-7.6488045e-08
-1.1050256e-07
-1.1171408e-07
-7.8548916e-08
-7.3989884e-08
-1.1291431e-07
-1.1458712e-07
-7.6704504e-08
-7.1481467e-08
-1.1543732e-07
-1.1768433e-07
-7.4902191e-08
-6.8931502e-08
-1.1804606e-07
-1.2099085e-07
-7.3128215e-08
-6.631636e-08
-1.2071185e-07
-1.2448847e-07
-7.1376759e-08
-6.3620155e-08
-1.2340334e-07
-1.281556e-07
-6.9649245e-08
-6.0834813e-08
-1.2608693e-07
-1.3196702e-07
-6.7953596e-08
-5.7960097e-08
-1.2872724e-07
-1.3589362e-07
-6.6303438e-08
-5.5003556e-08
-1.3128758e-07
-1.399022e-07
-6.4717208e-08
-5.1980387e-08
-1.3373061e-07
-1.4395526e-07
-6.3217153e-08
-4.8913175e-08
-1.3601897e-07
-1.4801122e-07
-6.1828247e-08
-4.5831509e-08
-1.381162e-07
-1.5202412e-07
-6.0577011e-08
-4.2771421e-08
-1.3998765e-07
-1.5594435e-07
-5.9490306e-08
-3.9774653e-08
-1.416015e-07
-1.5971928e-07
-5.8594118e-08
-3.6887709e-08
-1.4292981e-07
-1.6329424e-07
-5.7912378e-08
-3.4160685e-08
-1.4394951e-07
-1.6661376e-07
-5.7465883e-08
-3.1645859e-08
-1.446433e-07
-1.6962318e-07
-5.7271366e-08
-2.9396032e-08
-1.4500041e-07
-1.7227045e-07
-5.7340756e-08
-2.746263e-08
-1.4501714e-07
-1.745084e-07
-5.7680695e-08
-2.5893559e-08
-1.4469715e-07
-1.7629709e-07
-5.8292274e-08
-2.4730827e-08
-1.4405162e-07
-1.7760659e-07
-5.917103e-08
-2.4007933e-08
-1.4309905e-07
-1.7841988e-07
-6.0307073e-08
-2.3746989e-08
-1.4186514e-07
-1.7873594e-07
-6.1685237e-08
-2.3955585e-08
-1.4038239e-07
-1.7857294e-07
-6.328502e-08
-2.4623261e-08
-1.3869002e-07
-1.7797131e-07
-6.5079982e-08
-2.5717684e-08
-1.3683393e-07
-1.7699641e-07
-6.7036244e-08
-2.7180469e-08
-1.3486736e-07
-1.7574064e-07
-6.9109696e-08
-2.8922851e-08
-1.3285238e-07
-1.7432518e-07
-7.1241549e-08
-3.0821057e-08
-1.3086303e-07
-1.7290239e-07
-7.3352279e-08
-3.2710935e-08
-1.28989e-07
-1.7165556e-07
-7.5336132e-08
-3.4386419e-08
-1.2733661e-07
-1.7078028e-07
-7.7062349e-08
-3.561986e-08
-1.2603208e-07
-1.7046154e-07
-7.8382073e-08
-3.6193049e-08
-1.2527559e-07
-1.7105143e-07
-7.9092253e-08
-3.5733359e-08
-1.2547168e-07
-1.7366111e-07
-7.8819584e-08
-3.3121805e-08
-1.269729e-07
-1.7945878e-07
-7.7237498e-08
-2.719619e-08
)
;

boundaryField
{
    movingWall
    {
        type            zeroGradient;
    }
    CPLReceiveMD
    {
        type            zeroGradient;
    }
    streamwiseIn
    {
        type            cyclic;
    }
    streamwiseOut
    {
        type            cyclic;
    }
    front
    {
        type            cyclic;
    }
    back
    {
        type            cyclic;
    }
}


// ************************************************************************* //
