/*--------------------------------*- C++ -*----------------------------------*\
| =========                 |                                                 |
| \\      /  F ield         | OpenFOAM: The Open Source CFD Toolbox           |
|  \\    /   O peration     | Version:  3.0.x                                 |
|   \\  /    A nd           | Web:      www.OpenFOAM.org                      |
|    \\/     M anipulation  |                                                 |
\*---------------------------------------------------------------------------*/
FoamFile
{
    version     2.0;
    format      ascii;
    class       volScalarField;
    location    "150";
    object      sigmayz;
}
// * * * * * * * * * * * * * * * * * * * * * * * * * * * * * * * * * * * * * //

dimensions      [0 2 -2 0 0 0 0];

internalField   nonuniform List<scalar> 
960
(
-1.6246177e-11
-5.8042235e-11
-1.2431982e-10
-9.3237026e-11
-4.2943491e-11
2.7897472e-11
-2.505711e-12
1.4936424e-11
-3.8694282e-11
2.3423647e-11
1.4366009e-11
2.0803262e-11
-2.2527081e-11
2.0538454e-11
2.63671e-11
2.7984495e-11
-3.625503e-12
1.7324619e-11
3.2933412e-11
3.0408102e-11
1.0424034e-11
1.3671624e-11
3.4279178e-11
2.7901573e-11
1.8137591e-11
1.0055652e-11
3.1911266e-11
2.273983e-11
2.0722343e-11
6.8395511e-12
2.754833e-11
1.6856576e-11
1.9976324e-11
4.2174256e-12
2.256668e-11
1.1447475e-11
1.7440073e-11
2.2347379e-12
1.7713927e-11
7.0559953e-12
1.4215791e-11
8.4068275e-13
1.3401765e-11
3.8025186e-12
1.1007505e-11
-5.441363e-14
9.8115847e-12
1.5824643e-12
8.180371e-12
-5.6768128e-13
6.9648205e-12
1.950985e-13
5.8828146e-12
-8.1564372e-13
4.7919111e-12
-5.8133023e-13
4.1148241e-12
-8.8680877e-13
3.1892796e-12
-9.4507409e-13
2.7817708e-12
-8.510683e-13
2.0424947e-12
-1.0493007e-12
1.806171e-12
-7.594587e-13
1.2461489e-12
-1.0025368e-12
1.1160198e-12
-6.4417013e-13
7.0874991e-13
-8.7951717e-13
6.4452562e-13
-5.2570702e-13
3.5649043e-13
-7.3181062e-13
3.3347848e-13
-4.150991e-13
1.3512235e-13
-5.8118048e-13
1.3570251e-13
-3.18937e-13
4.1721935e-15
-4.4248105e-13
1.5619313e-14
-2.3912356e-13
-6.7279523e-14
-3.2880187e-13
-5.2095039e-14
-1.757072e-13
-1.0065064e-13
-2.3697772e-13
-8.6234058e-14
-1.2673085e-13
-1.1152827e-13
-1.6544669e-13
-9.9128003e-14
-8.9534648e-14
-1.0949842e-13
-1.1170855e-13
-9.9399324e-14
-6.1719173e-14
-1.0071055e-13
-7.1973128e-14
-9.2559013e-14
-4.1107521e-14
-8.8636144e-14
-4.389354e-14
-8.275694e-14
-2.649241e-14
-7.595611e-14
-2.4647533e-14
-7.1768153e-14
-1.6379748e-14
-6.3929062e-14
-1.1451735e-14
-6.1050182e-14
-9.3660195e-15
-5.3151639e-14
-3.0834889e-15
-5.1255456e-14
-4.6840732e-15
-4.3398511e-14
1.9736984e-15
-4.2355843e-14
-1.6694701e-15
-3.5342043e-14
4.9000248e-15
-3.4883682e-14
2.5951067e-16
-2.8436755e-14
6.2389368e-15
-2.8316181e-14
1.2983308e-15
-2.2942775e-14
6.5936651e-15
-2.2769189e-14
1.7282606e-15
-1.8287142e-14
6.3198757e-15
-1.8348599e-14
1.970238e-15
-1.4563441e-14
5.8806441e-15
-1.4660818e-14
1.9443845e-15
-1.153498e-14
5.0306392e-15
-1.1647225e-14
1.6939456e-15
-8.973312e-15
4.3249626e-15
-9.0859715e-15
1.4147994e-15
-6.9916608e-15
3.6322982e-15
-7.2625387e-15
1.2935185e-15
-5.4269639e-15
2.970259e-15
-5.6196448e-15
1.0099345e-15
-4.1751783e-15
2.3476569e-15
-4.3346725e-15
9.0151697e-16
-3.2081013e-15
1.7695697e-15
-3.3389819e-15
6.3944454e-16
-2.4478889e-15
1.3986018e-15
-2.5479073e-15
3.9469077e-16
-1.8699513e-15
1.0618641e-15
-1.9185835e-15
3.3123778e-16
-1.4079387e-15
9.2274848e-16
-1.3749688e-15
1.1345153e-16
-1.0309698e-15
6.4502683e-16
-1.0227185e-15
1.5733734e-16
-7.2648531e-16
4.4065437e-16
-7.177471e-16
1.1286825e-16
-4.5080718e-16
2.8639546e-16
-4.4558031e-16
6.0765572e-17
-3.7106201e-16
2.00261e-16
-3.603384e-16
1.1802066e-17
-3.1857846e-16
2.3178227e-16
-2.9835181e-16
-4.886472e-18
-2.7770728e-16
4.387285e-17
-2.5598134e-16
-1.9885733e-17
-7.7485677e-17
3.1821168e-17
-2.286588e-16
-2.5114862e-17
-5.4220525e-17
2.4565472e-17
-4.8112565e-17
-2.1786119e-17
-3.6616445e-17
1.7561765e-17
-3.9417452e-17
-1.8858804e-17
-2.294772e-17
1.3219329e-17
-4.2666323e-17
-1.9249742e-17
-1.5713635e-17
1.0184384e-17
-8.4343344e-18
-1.8378707e-17
-2.3683017e-17
1.053271e-18
-2.4567008e-18
-1.986795e-17
2.734669e-18
-1.1013536e-17
5.4779742e-17
-3.1227486e-17
5.195711e-18
-3.1253755e-17
1.1927557e-16
-8.0925645e-17
7.6056438e-18
-9.1648365e-17
5.1143089e-10
-9.8712007e-11
-5.2136674e-11
-4.7551636e-11
-6.0808297e-10
-7.5894263e-11
6.8250432e-11
-8.4852665e-11
-6.1869405e-10
-1.9639677e-11
3.8075117e-11
-4.9510097e-11
-7.2535951e-10
-3.477099e-11
-4.239206e-12
-6.4688546e-11
-6.284414e-10
-3.8085955e-11
-2.1036577e-11
-5.7853562e-11
-5.0441065e-10
-3.0945001e-11
-2.7760022e-11
-4.1663408e-11
-3.8032114e-10
-2.3187811e-11
-2.8810011e-11
-2.7309858e-11
-2.8046453e-10
-1.8235666e-11
-2.7187157e-11
-1.7994251e-11
-2.0658579e-10
-1.5704677e-11
-2.4665763e-11
-1.2905385e-11
-1.525369e-10
-1.4403463e-11
-2.1915604e-11
-1.0391837e-11
-1.1290089e-10
-1.3514396e-11
-1.9206098e-11
-9.2042131e-12
-8.3801142e-11
-1.2656933e-11
-1.6660893e-11
-8.5872191e-12
-6.2313013e-11
-1.1692167e-11
-1.433017e-11
-8.1314628e-12
-4.6353823e-11
-1.0606686e-11
-1.2218984e-11
-7.6479564e-12
-3.4327325e-11
-9.4360377e-12
-1.0327784e-11
-7.0752816e-12
-2.5250498e-11
-8.2432013e-12
-8.6512802e-12
-6.4243376e-12
-1.8592675e-11
-7.0923016e-12
-7.1795698e-12
-5.7338794e-12
-1.3723716e-11
-6.01889e-12
-5.905617e-12
-5.0449741e-12
-1.0156931e-11
-5.0442542e-12
-4.8223706e-12
-4.4808965e-12
-7.538144e-12
-4.1786518e-12
-3.9133885e-12
-3.9841536e-12
-5.604779e-12
-3.4221507e-12
-3.1528084e-12
-3.394721e-12
-4.1722524e-12
-2.7742289e-12
-2.520494e-12
-2.7825736e-12
-3.1095165e-12
-2.2305494e-12
-2.0018596e-12
-2.2391211e-12
-2.3211336e-12
-1.8009601e-12
-1.5812008e-12
-1.7837703e-12
-1.7351502e-12
-1.4546872e-12
-1.2425348e-12
-1.4108581e-12
-1.2984004e-12
-1.1644e-12
-9.7204371e-13
-1.1093285e-12
-9.7169592e-13
-9.2375289e-13
-7.5611708e-13
-8.6805907e-13
-7.268675e-13
-7.1770199e-13
-5.8509845e-13
-6.765533e-13
-5.4358844e-13
-5.5302759e-13
-4.5072238e-13
-5.2551911e-13
-4.0605217e-13
-4.2407313e-13
-3.4586242e-13
-4.0682086e-13
-3.0330261e-13
-3.241033e-13
-2.6428499e-13
-3.1410598e-13
-2.2643258e-13
-2.4699582e-13
-2.0159148e-13
-2.419128e-13
-1.6891414e-13
-1.8804082e-13
-1.5332678e-13
-1.8593345e-13
-1.2601008e-13
-1.4428133e-13
-1.1639709e-13
-1.42441e-13
-9.4037965e-14
-1.1072901e-13
-8.8166661e-14
-1.0905138e-13
-7.0269479e-14
-8.4045483e-14
-6.6771368e-14
-8.3336656e-14
-5.2358104e-14
-6.3618369e-14
-5.0611458e-14
-6.3603023e-14
-3.9042969e-14
-4.7993824e-14
-3.8089841e-14
-4.8343014e-14
-2.9255387e-14
-3.626719e-14
-2.8905615e-14
-3.6697036e-14
-2.1899469e-14
-2.7310109e-14
-2.1732828e-14
-2.7923172e-14
-1.6302567e-14
-2.0605753e-14
-1.6410989e-14
-2.1204332e-14
-1.2205966e-14
-1.53928e-14
-1.2379337e-14
-1.5959284e-14
-9.1602839e-15
-1.1635539e-14
-9.3423047e-15
-1.2000432e-14
-6.8791266e-15
-8.6815308e-15
-7.0466849e-15
-9.0173491e-15
-5.1797585e-15
-6.5855935e-15
-5.3365548e-15
-6.8927146e-15
-3.7956203e-15
-4.7616217e-15
-4.0066462e-15
-5.2067009e-15
-2.9892776e-15
-3.6394652e-15
-3.0171581e-15
-3.7978676e-15
-2.3022382e-15
-2.6910493e-15
-2.3105725e-15
-2.830991e-15
-1.8667345e-15
-1.9940411e-15
-1.6951694e-15
-2.1015094e-15
-1.3292637e-15
-1.5674073e-15
-1.3166234e-15
-1.445539e-15
-1.0076439e-15
-1.042066e-15
-9.8655171e-16
-1.0745552e-15
-7.1709455e-16
-7.3538067e-16
-6.9839705e-16
-9.2140584e-16
-6.1836865e-16
-6.3157388e-16
-4.4423486e-16
-6.3937875e-16
-3.7707396e-16
-5.5312322e-16
-5.4020445e-16
-3.8964395e-16
-3.1840718e-16
-3.223849e-16
-3.1924206e-16
-3.333895e-16
-2.2783461e-16
-2.7292674e-16
-2.1138452e-16
-1.2505562e-16
-1.8601932e-16
-7.4738773e-17
-1.6854509e-16
-8.8892053e-17
-1.2890887e-16
-5.2264859e-17
-1.2897674e-16
-6.1711466e-17
-1.2855487e-16
-8.6803591e-17
-1.1815079e-16
-6.498515e-17
-2.4322942e-16
-1.0685938e-16
-2.0844016e-16
-8.3790045e-17
1.6246177e-11
5.8042235e-11
1.2431982e-10
9.3237026e-11
4.2943491e-11
-2.7897472e-11
2.505711e-12
-1.4936424e-11
3.8694282e-11
-2.3423647e-11
-1.4366009e-11
-2.0803262e-11
2.2527081e-11
-2.0538454e-11
-2.63671e-11
-2.7984495e-11
3.625503e-12
-1.7324619e-11
-3.2933412e-11
-3.0408102e-11
-1.0424034e-11
-1.3671624e-11
-3.4279178e-11
-2.7901573e-11
-1.8137591e-11
-1.0055652e-11
-3.1911266e-11
-2.273983e-11
-2.0722343e-11
-6.8395511e-12
-2.754833e-11
-1.6856576e-11
-1.9976324e-11
-4.2174256e-12
-2.256668e-11
-1.1447475e-11
-1.7440073e-11
-2.2347379e-12
-1.7713927e-11
-7.0559953e-12
-1.4215791e-11
-8.4068275e-13
-1.3401765e-11
-3.8025186e-12
-1.1007505e-11
5.441363e-14
-9.8115847e-12
-1.5824643e-12
-8.180371e-12
5.6768128e-13
-6.9648205e-12
-1.950985e-13
-5.8828146e-12
8.1564372e-13
-4.7919111e-12
5.8133023e-13
-4.1148241e-12
8.8680877e-13
-3.1892796e-12
9.4507409e-13
-2.7817708e-12
8.510683e-13
-2.0424947e-12
1.0493007e-12
-1.806171e-12
7.594587e-13
-1.2461489e-12
1.0025368e-12
-1.1160198e-12
6.4417013e-13
-7.0874991e-13
8.7951717e-13
-6.4452562e-13
5.2570702e-13
-3.5649043e-13
7.3181062e-13
-3.3347848e-13
4.150991e-13
-1.3512235e-13
5.8118048e-13
-1.3570251e-13
3.18937e-13
-4.1721935e-15
4.4248105e-13
-1.5619313e-14
2.3912356e-13
6.7279523e-14
3.2880187e-13
5.2095039e-14
1.757072e-13
1.0065064e-13
2.3697772e-13
8.6234058e-14
1.2673085e-13
1.1152827e-13
1.6544669e-13
9.9128003e-14
8.9534648e-14
1.0949842e-13
1.1170855e-13
9.9399324e-14
6.1719173e-14
1.0071055e-13
7.1973128e-14
9.2559013e-14
4.1107521e-14
8.8636144e-14
4.389354e-14
8.275694e-14
2.6492409e-14
7.595611e-14
2.4647533e-14
7.1768153e-14
1.6379748e-14
6.3929062e-14
1.1451735e-14
6.1050182e-14
9.3660195e-15
5.3151639e-14
3.0834889e-15
5.1255456e-14
4.6840731e-15
4.3398511e-14
-1.9736984e-15
4.2355843e-14
1.6694701e-15
3.5342043e-14
-4.9000248e-15
3.4883682e-14
-2.5951067e-16
2.8436755e-14
-6.2389368e-15
2.8316181e-14
-1.2983307e-15
2.2942775e-14
-6.5936651e-15
2.2769189e-14
-1.7282605e-15
1.8287142e-14
-6.3198757e-15
1.8348599e-14
-1.970238e-15
1.4563441e-14
-5.8806441e-15
1.4660818e-14
-1.9443845e-15
1.153498e-14
-5.0306392e-15
1.1647225e-14
-1.6939456e-15
8.973312e-15
-4.3249626e-15
9.0859715e-15
-1.4147995e-15
6.9916608e-15
-3.6322982e-15
7.2625387e-15
-1.2935185e-15
5.4269638e-15
-2.970259e-15
5.6196448e-15
-1.0099345e-15
4.1751783e-15
-2.3476569e-15
4.3346725e-15
-9.0151697e-16
3.2081013e-15
-1.7695697e-15
3.3389819e-15
-6.3944453e-16
2.4478889e-15
-1.3986018e-15
2.5479073e-15
-3.9469076e-16
1.8699513e-15
-1.0618641e-15
1.9185835e-15
-3.3123778e-16
1.4079387e-15
-9.2274848e-16
1.3749688e-15
-1.1345153e-16
1.0309699e-15
-6.4502683e-16
1.0227185e-15
-1.5733734e-16
7.2648532e-16
-4.4065436e-16
7.1774709e-16
-1.1286825e-16
4.5080718e-16
-2.8639546e-16
4.4558031e-16
-6.0765572e-17
3.71062e-16
-2.00261e-16
3.603384e-16
-1.1802067e-17
3.1857846e-16
-2.3178227e-16
2.9835181e-16
4.886472e-18
2.7770728e-16
-4.3872849e-17
2.5598135e-16
1.9885732e-17
7.7485677e-17
-3.1821168e-17
2.286588e-16
2.5114862e-17
5.4220525e-17
-2.4565473e-17
4.8112566e-17
2.1786125e-17
3.6616445e-17
-1.7561765e-17
3.9417453e-17
1.8858797e-17
2.2947721e-17
-1.321933e-17
4.2666323e-17
1.9249736e-17
1.5713633e-17
-1.0184381e-17
8.4343347e-18
1.8378708e-17
2.3683015e-17
-1.0532717e-18
2.4567008e-18
1.9867948e-17
-2.734671e-18
1.101353e-17
-5.4779748e-17
3.122748e-17
-5.1957138e-18
3.1253754e-17
-1.1927557e-16
8.0925639e-17
-7.6056471e-18
9.1648363e-17
-5.1143089e-10
9.8712007e-11
5.2136674e-11
4.7551637e-11
6.0808297e-10
7.5894263e-11
-6.8250432e-11
8.4852665e-11
6.1869405e-10
1.9639677e-11
-3.8075117e-11
4.9510097e-11
7.2535951e-10
3.477099e-11
4.239206e-12
6.4688546e-11
6.284414e-10
3.8085955e-11
2.1036577e-11
5.7853562e-11
5.0441065e-10
3.0945001e-11
2.7760022e-11
4.1663408e-11
3.8032114e-10
2.3187811e-11
2.8810011e-11
2.7309858e-11
2.8046453e-10
1.8235666e-11
2.7187157e-11
1.7994251e-11
2.0658579e-10
1.5704677e-11
2.4665763e-11
1.2905385e-11
1.525369e-10
1.4403463e-11
2.1915604e-11
1.0391837e-11
1.1290089e-10
1.3514396e-11
1.9206098e-11
9.2042131e-12
8.3801142e-11
1.2656933e-11
1.6660893e-11
8.5872191e-12
6.2313013e-11
1.1692167e-11
1.433017e-11
8.1314628e-12
4.6353823e-11
1.0606686e-11
1.2218984e-11
7.6479564e-12
3.4327325e-11
9.4360377e-12
1.0327784e-11
7.0752816e-12
2.5250498e-11
8.2432013e-12
8.6512802e-12
6.4243376e-12
1.8592675e-11
7.0923016e-12
7.1795698e-12
5.7338794e-12
1.3723716e-11
6.01889e-12
5.905617e-12
5.0449741e-12
1.0156931e-11
5.0442542e-12
4.8223706e-12
4.4808965e-12
7.538144e-12
4.1786518e-12
3.9133885e-12
3.9841536e-12
5.604779e-12
3.4221507e-12
3.1528084e-12
3.394721e-12
4.1722524e-12
2.7742289e-12
2.520494e-12
2.7825736e-12
3.1095165e-12
2.2305494e-12
2.0018596e-12
2.2391211e-12
2.3211336e-12
1.8009601e-12
1.5812008e-12
1.7837703e-12
1.7351502e-12
1.4546872e-12
1.2425348e-12
1.4108581e-12
1.2984004e-12
1.1644e-12
9.7204371e-13
1.1093285e-12
9.7169592e-13
9.2375289e-13
7.5611708e-13
8.6805907e-13
7.268675e-13
7.1770199e-13
5.8509845e-13
6.765533e-13
5.4358844e-13
5.5302759e-13
4.5072238e-13
5.2551911e-13
4.0605217e-13
4.2407313e-13
3.4586242e-13
4.0682086e-13
3.0330261e-13
3.241033e-13
2.6428499e-13
3.1410598e-13
2.2643258e-13
2.4699582e-13
2.0159148e-13
2.419128e-13
1.6891414e-13
1.8804082e-13
1.5332678e-13
1.8593345e-13
1.2601008e-13
1.4428133e-13
1.1639709e-13
1.42441e-13
9.4037965e-14
1.1072901e-13
8.816666e-14
1.0905138e-13
7.0269479e-14
8.4045483e-14
6.6771368e-14
8.3336656e-14
5.2358103e-14
6.3618369e-14
5.0611459e-14
6.3603023e-14
3.9042969e-14
4.7993824e-14
3.8089841e-14
4.8343014e-14
2.9255388e-14
3.626719e-14
2.8905615e-14
3.6697035e-14
2.1899469e-14
2.7310109e-14
2.1732828e-14
2.7923172e-14
1.6302567e-14
2.0605753e-14
1.6410989e-14
2.1204332e-14
1.2205966e-14
1.53928e-14
1.2379337e-14
1.5959284e-14
9.1602839e-15
1.1635539e-14
9.3423047e-15
1.2000432e-14
6.8791266e-15
8.6815308e-15
7.0466849e-15
9.0173491e-15
5.1797585e-15
6.5855935e-15
5.3365548e-15
6.8927146e-15
3.7956204e-15
4.7616217e-15
4.0066462e-15
5.2067009e-15
2.9892776e-15
3.6394652e-15
3.0171581e-15
3.7978676e-15
2.3022381e-15
2.6910493e-15
2.3105725e-15
2.830991e-15
1.8667345e-15
1.9940411e-15
1.6951694e-15
2.1015094e-15
1.3292637e-15
1.5674073e-15
1.3166234e-15
1.445539e-15
1.0076439e-15
1.042066e-15
9.8655171e-16
1.0745552e-15
7.1709455e-16
7.3538068e-16
6.9839706e-16
9.2140584e-16
6.1836865e-16
6.3157387e-16
4.4423486e-16
6.3937876e-16
3.7707395e-16
5.5312322e-16
5.4020445e-16
3.8964395e-16
3.1840718e-16
3.2238491e-16
3.1924206e-16
3.333895e-16
2.2783462e-16
2.7292674e-16
2.1138452e-16
1.2505561e-16
1.8601931e-16
7.4738767e-17
1.6854509e-16
8.8892053e-17
1.2890887e-16
5.2264855e-17
1.2897674e-16
6.1711468e-17
1.2855487e-16
8.6803593e-17
1.1815079e-16
6.4985144e-17
2.4322942e-16
1.0685938e-16
2.0844015e-16
8.3790043e-17
)
;

boundaryField
{
    movingWall
    {
        type            calculated;
        value           nonuniform List<scalar> 
16
(
1.5647941e-16
-3.3471273e-16
-1.5647941e-16
3.3471273e-16
-1.2234527e-16
-1.3380011e-16
1.2234527e-16
1.338001e-16
1.7562161e-17
-2.9394884e-16
-1.7562164e-17
2.9394881e-16
-1.3839694e-16
-1.2134302e-16
1.3839693e-16
1.2134301e-16
)
;
    }
    CPLReceiveMD
    {
        type            calculated;
        value           nonuniform List<scalar> 
16
(
-1.3108293e-12
1.0875191e-09
1.3108293e-12
-1.0875191e-09
-1.4088592e-10
-1.3223837e-10
1.4088592e-10
1.3223837e-10
-2.3850677e-10
-1.8774035e-10
2.3850677e-10
1.8774035e-10
-2.0023594e-10
-3.2016067e-11
2.0023594e-10
3.2016067e-11
)
;
    }
    streamwiseIn
    {
        type            cyclic;
    }
    streamwiseOut
    {
        type            cyclic;
    }
    front
    {
        type            cyclic;
    }
    back
    {
        type            cyclic;
    }
}


// ************************************************************************* //
