/*--------------------------------*- C++ -*----------------------------------*\
| =========                 |                                                 |
| \\      /  F ield         | OpenFOAM: The Open Source CFD Toolbox           |
|  \\    /   O peration     | Version:  3.0.x                                 |
|   \\  /    A nd           | Web:      www.OpenFOAM.org                      |
|    \\/     M anipulation  |                                                 |
\*---------------------------------------------------------------------------*/
FoamFile
{
    version     2.0;
    format      ascii;
    class       volScalarField;
    location    "150";
    object      sigmayy;
}
// * * * * * * * * * * * * * * * * * * * * * * * * * * * * * * * * * * * * * //

dimensions      [0 2 -2 0 0 0 0];

internalField   nonuniform List<scalar> 
960
(
9.5749535e-09
1.7721554e-09
-2.2295444e-09
-1.2034748e-09
3.8368779e-09
2.8371979e-09
-2.1965944e-09
-2.4854001e-09
6.3362743e-09
8.605903e-09
-8.3621556e-09
-8.5034194e-09
1.1369432e-08
1.2478711e-08
-1.312592e-08
-1.2425742e-08
1.4443001e-08
1.4952341e-08
-1.5913269e-08
-1.4939986e-08
1.3951418e-08
1.4655592e-08
-1.4970958e-08
-1.4603252e-08
9.1465073e-09
1.0369836e-08
-9.831439e-09
-1.0201844e-08
3.0540754e-09
4.5386228e-09
-3.4500983e-09
-4.2713699e-09
-1.8898807e-09
-4.8215558e-10
1.7046599e-09
8.0110662e-10
-4.8815816e-09
-3.746487e-09
4.8311985e-09
4.0728775e-09
-6.0724842e-09
-5.2195929e-09
6.1019169e-09
5.5234071e-09
-5.9532545e-09
-5.3388574e-09
6.0257723e-09
5.6040044e-09
-5.0662287e-09
-4.6272884e-09
5.1578118e-09
4.8478508e-09
-3.8326484e-09
-3.4862166e-09
3.9279077e-09
3.6625315e-09
-2.5317717e-09
-2.2152582e-09
2.6210485e-09
2.3508323e-09
-1.3320603e-09
-9.9677862e-10
1.4094424e-09
1.0962669e-09
-3.088062e-10
8.4546953e-11
3.7091934e-10
-1.6420841e-11
5.191034e-10
9.9937075e-10
-4.7392925e-10
-9.58241e-10
1.167817e-09
1.7588443e-09
-1.1400659e-09
-1.7407967e-09
1.6393046e-09
2.3787546e-09
-1.6286835e-09
-2.3808061e-09
1.9886758e-09
2.895047e-09
-1.9943982e-09
-2.9151019e-09
2.219095e-09
3.3124223e-09
-2.2400214e-09
-3.348342e-09
2.3621201e-09
3.6863545e-09
-2.3969153e-09
-3.7359653e-09
2.3998088e-09
3.9893078e-09
-2.4470845e-09
-4.0507696e-09
2.3430999e-09
4.2330575e-09
-2.401472e-09
-4.304768e-09
2.1997028e-09
4.4138568e-09
-2.2678172e-09
-4.4944932e-09
1.942159e-09
4.5135258e-09
-2.0187098e-09
-4.6020017e-09
1.6090632e-09
4.6115476e-09
-1.6928081e-09
-4.7068094e-09
1.0844163e-09
4.4752045e-09
-1.1742e-09
-4.5762549e-09
4.7601438e-10
4.2593363e-09
-5.7078289e-10
-4.3653135e-09
-3.2738494e-10
3.8414242e-09
2.2858015e-10
-3.9515634e-09
-1.100459e-09
3.3215139e-09
9.9845885e-10
-3.4351265e-09
-2.1683146e-09
2.6899727e-09
2.0638566e-09
-2.8064357e-09
-3.1855187e-09
1.8281351e-09
3.0792408e-09
-1.9468851e-09
-4.2454308e-09
8.4190919e-10
4.1378802e-09
-9.6241628e-10
-5.4364172e-09
-4.9219356e-10
5.3280625e-09
3.7045547e-10
-6.6202878e-09
-1.838571e-09
6.5115273e-09
1.716115e-09
-7.7658748e-09
-3.4111252e-09
7.657054e-09
3.288453e-09
-8.728225e-09
-5.1955714e-09
8.6196425e-09
5.0731977e-09
-9.4720138e-09
-7.0594644e-09
9.3639377e-09
6.9379255e-09
-1.0073452e-08
-8.9732949e-09
9.966137e-09
8.8531497e-09
-1.0278717e-08
-1.0898926e-08
1.0172411e-08
1.0780762e-08
-9.7283675e-09
-1.3233148e-08
9.6233215e-09
1.311758e-08
-9.5133265e-09
-1.4366834e-08
9.4097991e-09
1.4254498e-08
-9.0706242e-09
-1.6455408e-08
8.9688795e-09
1.6346939e-08
-7.295111e-09
-1.7209526e-08
7.195404e-09
1.7105534e-08
-6.4244422e-09
-1.7664221e-08
6.326977e-09
1.756524e-08
-5.3822831e-09
-1.7743771e-08
5.2871494e-09
1.7650181e-08
-3.1063118e-09
-1.7375407e-08
3.0133784e-09
1.728732e-08
-1.87471e-09
-1.6494701e-08
1.7834827e-09
1.6411812e-08
4.6461658e-10
-1.3942955e-08
-5.5515769e-10
1.3864392e-08
1.6229846e-09
-1.0805265e-08
-1.7145497e-09
1.0729461e-08
3.7539121e-09
-7.0954714e-09
-3.8489672e-09
7.020137e-09
4.5834853e-09
-2.8851579e-09
-4.6850634e-09
2.8075311e-09
5.1844117e-09
3.8948625e-09
-5.2953793e-09
-3.9773363e-09
5.5435577e-09
8.5626393e-09
-5.6657526e-09
-8.6511078e-09
6.7601135e-09
1.4022044e-08
-6.8918339e-09
-1.411529e-08
5.4081717e-09
1.6002503e-08
-5.5544681e-09
-1.6091341e-08
4.4580648e-09
1.4798609e-08
-4.552037e-09
-1.488774e-08
3.3659582e-09
9.7456379e-09
-3.3862748e-09
-9.844489e-09
1.8386107e-09
4.7651546e-10
-1.8064931e-09
-1.3057188e-09
2.901877e-09
2.3165652e-09
-2.5937953e-09
-2.713717e-09
9.744028e-09
9.3176523e-09
-9.5646694e-09
-9.1901694e-09
1.3602625e-08
1.2965098e-08
-1.3721693e-08
-1.2667373e-08
1.5985936e-08
1.5260155e-08
-1.613191e-08
-1.5019571e-08
1.4981847e-08
1.4714824e-08
-1.4986777e-08
-1.4495075e-08
9.8063344e-09
1.0248246e-08
-9.6658406e-09
-9.9689626e-09
3.5130206e-09
4.3621035e-09
-3.2568587e-09
-4.0170497e-09
-1.5339437e-09
-6.3586377e-10
1.8604551e-09
1.02172e-09
-4.5737072e-09
-3.813699e-09
4.9277848e-09
4.2112788e-09
-5.8019638e-09
-5.2374076e-09
6.1523433e-09
5.623165e-09
-5.72722e-09
-5.3293466e-09
6.0539552e-09
5.6873961e-09
-4.8810632e-09
-4.5903456e-09
5.1729411e-09
4.9115683e-09
-3.6826854e-09
-3.4348629e-09
3.9345364e-09
3.7151124e-09
-2.4138998e-09
-2.1597946e-09
2.6246001e-09
2.3982778e-09
-1.2411575e-09
-9.4023406e-10
1.4124311e-09
1.1382628e-09
-2.4018244e-10
1.380411e-10
3.7491297e-10
2.20031e-11
5.7118042e-10
1.0484474e-09
-4.6990134e-10
-9.2330727e-10
1.191305e-09
1.8022288e-09
-1.1202135e-09
-1.7089232e-09
1.6758207e-09
2.4177438e-09
-1.6316718e-09
-2.3531824e-09
2.0182128e-09
2.9299712e-09
-1.9978989e-09
-2.8906396e-09
2.2322035e-09
3.3547586e-09
-2.2328533e-09
-3.337428e-09
2.3710806e-09
3.714323e-09
-2.390097e-09
-3.7163678e-09
2.4054523e-09
4.0143055e-09
-2.4404938e-09
-4.0334094e-09
2.3570928e-09
4.2552219e-09
-2.4060655e-09
-4.289334e-09
2.2113351e-09
4.4334624e-09
-2.2723824e-09
-4.4806122e-09
1.9516849e-09
4.542048e-09
-2.0231745e-09
-4.6003602e-09
1.6055511e-09
4.5159696e-09
-1.6860501e-09
-4.5838292e-09
1.0790754e-09
4.4884992e-09
-1.1673215e-09
-4.5645125e-09
4.6894328e-10
4.2705096e-09
-5.638207e-10
-4.3534368e-09
-3.3607158e-10
3.8504066e-09
2.355545e-10
-3.9391572e-09
-1.1106121e-09
3.4391591e-09
1.0053367e-09
-3.5327867e-09
-2.1797306e-09
2.6942397e-09
2.0704925e-09
-2.7919293e-09
-3.1979279e-09
1.8298504e-09
3.0854548e-09
-1.9308982e-09
-4.369451e-09
8.4092805e-10
4.2544131e-09
-9.4473695e-10
-5.449725e-09
-3.8509313e-10
5.3327518e-09
2.7901897e-10
-6.6333607e-09
-1.845455e-09
6.5150597e-09
1.737547e-09
-7.6672216e-09
-3.4211346e-09
7.5481886e-09
3.3117891e-09
-8.6282237e-09
-5.097795e-09
8.5090528e-09
4.9873764e-09
-9.4810206e-09
-6.9648371e-09
9.3623157e-09
6.8536968e-09
-1.0079922e-08
-8.9926585e-09
9.9622981e-09
8.8811522e-09
-1.0393064e-08
-1.0921098e-08
1.0277149e-08
1.08096e-08
-1.0837775e-08
-1.214821e-08
1.072421e-08
1.2037129e-08
-9.509292e-09
-1.5502963e-08
9.3987187e-09
1.5392739e-08
-9.06254e-09
-1.6483258e-08
8.9555818e-09
1.6374363e-08
-8.3925872e-09
-1.7237829e-08
8.2898123e-09
1.7130748e-08
-6.408664e-09
-1.769199e-08
6.3105265e-09
1.7587175e-08
-5.3634088e-09
-1.7769877e-08
5.2701553e-09
1.7667668e-08
-3.0852538e-09
-1.8508178e-08
2.9967936e-09
1.8408684e-08
-1.8526878e-09
-1.6513728e-08
1.76843e-09
1.6416667e-08
4.8611467e-10
-1.3956531e-08
-5.6743637e-10
1.3861068e-08
2.7518551e-09
-1.0812256e-08
-2.8323235e-09
1.071686e-08
3.7693608e-09
-7.0950168e-09
-3.8518582e-09
6.997462e-09
4.5936307e-09
-2.8768663e-09
-4.6814376e-09
2.7745577e-09
6.2979138e-09
2.8011649e-09
-6.3936422e-09
-2.9103374e-09
6.6506777e-09
8.5843195e-09
-6.7548744e-09
-8.700849e-09
5.6426117e-09
1.2935061e-08
-5.7523087e-09
-1.3057466e-08
6.5049016e-09
1.7116093e-08
-6.6114354e-09
-1.7235603e-08
4.4533781e-09
1.4830744e-08
-4.5239712e-09
-1.4912918e-08
3.376397e-09
9.8383618e-09
-3.4178257e-09
-9.8683156e-09
2.6613069e-09
8.8758717e-10
-2.6171819e-09
-2.0446239e-09
3.0865349e-09
2.6452723e-09
-2.4679904e-09
-2.757212e-09
9.309344e-09
8.9107675e-09
-8.5663325e-09
-8.2623588e-09
1.3746406e-08
1.2738686e-08
-1.3326073e-08
-1.21429e-08
1.6219075e-08
1.5146906e-08
-1.597997e-08
-1.4699698e-08
1.5256977e-08
1.47979e-08
-1.5033692e-08
-1.4425784e-08
1.0123262e-08
1.0467319e-08
-9.85748e-09
-1.0081638e-08
3.7660421e-09
4.6026171e-09
-3.4556246e-09
-4.1948506e-09
-1.3717802e-09
-4.3926937e-10
1.7051744e-09
8.4889586e-10
-4.5159896e-09
-3.7155803e-09
4.8480856e-09
4.1035173e-09
-5.8002841e-09
-5.1841965e-09
6.1132698e-09
5.5333095e-09
-5.7594025e-09
-5.3183062e-09
6.0433259e-09
5.6198664e-09
-4.9207168e-09
-4.6090601e-09
5.1711902e-09
4.8610916e-09
-3.7239976e-09
-3.4685754e-09
3.939962e-09
3.6732826e-09
-2.4515271e-09
-2.200235e-09
2.6333707e-09
2.3617906e-09
-1.2729338e-09
-9.8295954e-10
1.4210883e-09
1.1060674e-09
-2.6571028e-10
9.6456629e-11
3.8153682e-10
-7.1826595e-12
5.5029022e-10
1.009735e-09
-4.6430702e-10
-9.5022221e-10
1.1899949e-09
1.7677388e-09
-1.1311931e-09
-1.7340733e-09
1.6557049e-09
2.3862934e-09
-1.6214019e-09
-2.3747387e-09
2.0008446e-09
2.9013611e-09
-1.988452e-09
-2.9093675e-09
2.2281398e-09
3.3176393e-09
-2.2352042e-09
-3.3432644e-09
2.3688445e-09
3.6905602e-09
-2.3930508e-09
-3.7317382e-09
2.4048093e-09
3.992643e-09
-2.4440073e-09
-4.0473427e-09
2.3468234e-09
4.2357399e-09
-2.3990373e-09
-4.302025e-09
2.2024816e-09
4.4160337e-09
-2.2658996e-09
-4.4923164e-09
1.9442367e-09
4.5152992e-09
-2.0172041e-09
-4.6002866e-09
1.6106158e-09
4.6129792e-09
-1.6916333e-09
-4.7054658e-09
1.0855774e-09
4.4763242e-09
-1.1732886e-09
-4.5752061e-09
4.7688252e-10
4.2602028e-09
-5.7007822e-10
-4.3644977e-09
-3.2673719e-10
3.8420905e-09
2.2912168e-10
-3.9509314e-09
-1.0999746e-09
3.3220239e-09
9.9887294e-10
-3.4346383e-09
-2.1679525e-09
2.6903579e-09
2.0641736e-09
-2.8060585e-09
-3.1852487e-09
1.8284259e-09
3.0794826e-09
-1.946595e-09
-4.24523e-09
8.4213393e-10
4.1380637e-09
-9.6219455e-10
-5.4362669e-09
-4.9202015e-10
5.3282006e-09
3.7062519e-10
-6.6201749e-09
-1.8384389e-09
6.5116329e-09
1.7162453e-09
-7.7657915e-09
-3.4110251e-09
7.6571337e-09
3.2885529e-09
-8.7281632e-09
-5.1954959e-09
8.6197025e-09
5.0732729e-09
-9.4719666e-09
-7.0594074e-09
9.3639837e-09
6.9379823e-09
-1.0073416e-08
-8.9732515e-09
9.9661713e-09
8.8531936e-09
-1.0278691e-08
-1.0898893e-08
1.0172437e-08
1.0780795e-08
-9.7283479e-09
-1.3233124e-08
9.6233411e-09
1.3117606e-08
-9.5133118e-09
-1.4366816e-08
9.4098139e-09
1.4254516e-08
-9.0706126e-09
-1.6455394e-08
8.9688908e-09
1.6346952e-08
-7.2951029e-09
-1.7209516e-08
7.1954127e-09
1.7105545e-08
-6.4244368e-09
-1.7664214e-08
6.3269832e-09
1.7565249e-08
-5.382279e-09
-1.7743765e-08
5.2871543e-09
1.7650187e-08
-3.1063081e-09
-1.7375403e-08
3.0133821e-09
1.7287325e-08
-1.8747066e-09
-1.6494697e-08
1.7834852e-09
1.6411815e-08
4.6461897e-10
-1.3942951e-08
-5.5515533e-10
1.3864394e-08
1.6229859e-09
-1.0805264e-08
-1.7145475e-09
1.0729463e-08
3.7539134e-09
-7.0954711e-09
-3.8489669e-09
7.020139e-09
4.5834865e-09
-2.8851568e-09
-4.6850631e-09
2.8075322e-09
5.1844121e-09
3.8948635e-09
-5.2953779e-09
-3.9773353e-09
5.5435583e-09
8.5626403e-09
-5.665752e-09
-8.6511068e-09
6.760114e-09
1.4022045e-08
-6.8918335e-09
-1.411529e-08
5.4081722e-09
1.6002503e-08
-5.5544676e-09
-1.6091341e-08
4.4580651e-09
1.4798609e-08
-4.5520366e-09
-1.488774e-08
3.3659583e-09
9.7456382e-09
-3.3862746e-09
-9.8444889e-09
1.9776335e-09
4.2690433e-10
-1.7457411e-09
-1.2811866e-09
2.9685444e-09
2.2921429e-09
-2.6025424e-09
-2.7412542e-09
9.7127756e-09
9.3275389e-09
-9.6025931e-09
-9.2283384e-09
1.3532496e-08
1.2985024e-08
-1.3739116e-08
-1.2678889e-08
1.5923716e-08
1.5285278e-08
-1.6121029e-08
-1.5002849e-08
1.4948301e-08
1.4739562e-08
-1.4956364e-08
-1.4461762e-08
9.7889087e-09
1.0258647e-08
-9.6146974e-09
-9.9198431e-09
3.5252078e-09
4.3791449e-09
-3.2152331e-09
-3.9820739e-09
-1.5120363e-09
-6.2337466e-10
1.8988071e-09
1.0500209e-09
-4.5486295e-09
-3.8163411e-09
4.9607265e-09
4.2431844e-09
-5.7778904e-09
-5.2322366e-09
6.1791793e-09
5.6371828e-09
-5.7063632e-09
-5.3266517e-09
6.0748893e-09
5.6959548e-09
-4.8642365e-09
-4.5893523e-09
5.1886874e-09
4.9161252e-09
-3.6687206e-09
-3.4349422e-09
3.9448895e-09
3.7169808e-09
-2.4044202e-09
-2.1604894e-09
2.6326841e-09
2.3984926e-09
-1.2342266e-09
-9.4110554e-10
1.4178416e-09
1.1374497e-09
-2.3543592e-10
1.369832e-10
3.7855577e-10
2.0873563e-11
5.743587e-10
1.0474365e-09
-4.6758927e-10
-9.2454536e-10
1.1933411e-09
1.8013283e-09
-1.1188201e-09
-1.7100989e-09
1.6770564e-09
2.4169809e-09
-1.6309008e-09
-2.3542239e-09
2.0189084e-09
2.9293512e-09
-1.9975328e-09
-2.8914975e-09
2.2325449e-09
3.354272e-09
-2.2327379e-09
-3.3380979e-09
2.3711996e-09
3.7139526e-09
-2.3901264e-09
-3.71688e-09
2.4054396e-09
4.0140287e-09
-2.440598e-09
-4.0337873e-09
2.3570066e-09
4.2550192e-09
-2.4062027e-09
-4.2896056e-09
2.2112131e-09
4.4333162e-09
-2.272528e-09
-4.480801e-09
1.9515529e-09
4.5419445e-09
-2.0233147e-09
-4.6004842e-09
1.6054234e-09
4.5158998e-09
-1.6861765e-09
-4.583909e-09
1.0789581e-09
4.4884531e-09
-1.167431e-09
-4.5645613e-09
4.6884064e-10
4.2704797e-09
-5.6391508e-10
-4.3534624e-09
-3.3616041e-10
3.8503883e-09
2.3547521e-10
-3.9391688e-09
-1.110687e-09
3.4391483e-09
1.0052719e-09
-3.5327892e-09
-2.1797929e-09
2.6942343e-09
2.0704401e-09
-2.7919258e-09
-3.1979805e-09
1.8298492e-09
3.0854128e-09
-1.9308914e-09
-4.3694931e-09
8.4092839e-10
4.2543789e-09
-9.4472945e-10
-5.4497584e-09
-3.8509222e-10
5.3327248e-09
2.7902721e-10
-6.6333879e-09
-1.8454526e-09
6.5150375e-09
1.7375552e-09
-7.667244e-09
-3.4211317e-09
7.5481707e-09
3.3117956e-09
-8.6282407e-09
-5.0977932e-09
8.5090391e-09
4.9873823e-09
-9.4810338e-09
-6.9648356e-09
9.362305e-09
6.8537021e-09
-1.0079934e-08
-8.9926572e-09
9.9622897e-09
8.881157e-09
-1.0393072e-08
-1.0921096e-08
1.0277142e-08
1.0809604e-08
-1.0837781e-08
-1.2148209e-08
1.0724205e-08
1.2037132e-08
-9.509297e-09
-1.5502962e-08
9.3987149e-09
1.539274e-08
-9.0625442e-09
-1.6483257e-08
8.9555787e-09
1.6374365e-08
-8.3925903e-09
-1.7237828e-08
8.2898099e-09
1.713075e-08
-6.4086662e-09
-1.7691991e-08
6.3105244e-09
1.7587176e-08
-5.3634109e-09
-1.7769877e-08
5.2701542e-09
1.7667669e-08
-3.0852549e-09
-1.8508178e-08
2.9967934e-09
1.8408684e-08
-1.8526879e-09
-1.6513728e-08
1.7684299e-09
1.6416668e-08
4.8611462e-10
-1.3956532e-08
-5.6743734e-10
1.3861069e-08
2.7518551e-09
-1.0812256e-08
-2.8323244e-09
1.071686e-08
3.7693599e-09
-7.0950169e-09
-3.8518583e-09
6.9974619e-09
4.5936298e-09
-2.8768664e-09
-4.6814376e-09
2.7745576e-09
6.2979139e-09
2.8011648e-09
-6.3936422e-09
-2.9103375e-09
6.6506777e-09
8.5843194e-09
-6.7548743e-09
-8.7008491e-09
5.6426118e-09
1.2935061e-08
-5.7523087e-09
-1.3057466e-08
6.5049016e-09
1.7116093e-08
-6.6114355e-09
-1.7235603e-08
4.4533781e-09
1.4830744e-08
-4.5239711e-09
-1.4912918e-08
3.376397e-09
9.8383618e-09
-3.4178257e-09
-9.8683157e-09
)
;

boundaryField
{
    movingWall
    {
        type            calculated;
        value           nonuniform List<scalar> 
16
(
2.9936797e-09
3.0085686e-09
2.99368e-09
3.0085686e-09
8.6249785e-09
8.7329332e-09
8.6249789e-09
8.7329332e-09
-3.0036207e-09
-3.0521409e-09
-3.0036207e-09
-3.052141e-09
-8.7270856e-09
-8.742761e-09
-8.7270856e-09
-8.742761e-09
)
;
    }
    CPLReceiveMD
    {
        type            calculated;
        value           nonuniform List<scalar> 
16
(
1.1828578e-08
1.7639736e-09
2.9060373e-09
1.9150304e-09
1.6787313e-09
1.9261486e-10
5.8151339e-10
1.4208989e-10
-2.7176199e-09
-1.9325057e-09
-3.1264657e-09
-1.8332327e-09
-1.0950782e-09
-1.1100722e-09
-2.0689149e-09
-1.0575015e-09
)
;
    }
    streamwiseIn
    {
        type            cyclic;
    }
    streamwiseOut
    {
        type            cyclic;
    }
    front
    {
        type            cyclic;
    }
    back
    {
        type            cyclic;
    }
}


// ************************************************************************* //
