/*--------------------------------*- C++ -*----------------------------------*\
| =========                 |                                                 |
| \\      /  F ield         | OpenFOAM: The Open Source CFD Toolbox           |
|  \\    /   O peration     | Version:  3.0.x                                 |
|   \\  /    A nd           | Web:      www.OpenFOAM.org                      |
|    \\/     M anipulation  |                                                 |
\*---------------------------------------------------------------------------*/
FoamFile
{
    version     2.0;
    format      ascii;
    class       volScalarField;
    location    "150";
    object      sigmaxx;
}
// * * * * * * * * * * * * * * * * * * * * * * * * * * * * * * * * * * * * * //

dimensions      [0 2 -2 0 0 0 0];

internalField   nonuniform List<scalar> 
960
(
-6.1455001e-09
-2.2073393e-09
2.3025317e-09
1.9314322e-09
-3.0392344e-09
-2.4034676e-09
1.9302914e-09
2.2438015e-09
-8.8608178e-09
-9.3046646e-09
9.4861224e-09
9.2286202e-09
-1.2838454e-08
-1.2748986e-08
1.3358925e-08
1.2682431e-08
-1.5642811e-08
-1.5318957e-08
1.6083067e-08
1.5272701e-08
-1.4718163e-08
-1.5036509e-08
1.4997785e-08
1.4974077e-08
-9.6348965e-09
-1.059545e-08
9.8011048e-09
1.0478893e-08
-3.4209676e-09
-4.6992487e-09
3.4844754e-09
4.5361198e-09
1.5931034e-09
3.4241541e-10
-1.6031137e-09
-5.2866685e-10
4.6417226e-09
3.6404707e-09
-4.6948335e-09
-3.827803e-09
5.8857014e-09
5.127558e-09
-5.9601669e-09
-5.3009837e-09
5.8047832e-09
5.2553205e-09
-5.8866241e-09
-5.4068381e-09
4.9541229e-09
4.5681479e-09
-5.0346619e-09
-4.6948983e-09
3.7548098e-09
3.4464173e-09
-3.8289064e-09
-3.5487225e-09
2.4818656e-09
2.193034e-09
-2.5466398e-09
-2.2728416e-09
1.3089534e-09
9.9470328e-10
-1.3629818e-09
-1.0545605e-09
3.1151423e-10
-6.6624371e-11
-3.5426902e-10
2.4129656e-11
-4.9159287e-10
-9.5929032e-10
4.6007444e-10
9.3175512e-10
-1.1207353e-09
-1.697847e-09
1.1000365e-09
1.6831077e-09
-1.5551229e-09
-2.2901742e-09
1.5446003e-09
2.2865745e-09
-1.8787986e-09
-2.7808614e-09
1.8776812e-09
2.7871892e-09
-2.0766293e-09
-3.1556021e-09
2.0840579e-09
3.170625e-09
-2.1976276e-09
-3.5086942e-09
2.212713e-09
3.5311802e-09
-2.1994967e-09
-3.7764272e-09
2.2213747e-09
3.8053343e-09
-2.1043202e-09
-3.9813168e-09
2.132169e-09
4.0157477e-09
-1.9325752e-09
-4.1214849e-09
1.965618e-09
4.1606963e-09
-1.6372298e-09
-4.1711892e-09
1.6747371e-09
4.2145729e-09
-1.3041434e-09
-4.3033153e-09
1.3454353e-09
4.3502895e-09
-7.0887361e-10
-4.068631e-09
7.5332736e-10
4.1186527e-09
-7.1746082e-11
-3.7942024e-09
1.1880013e-10
3.8468058e-09
8.2929938e-10
-3.2523319e-09
-7.8014563e-10
3.3071074e-09
1.5487371e-09
-2.6594734e-09
-1.4979241e-09
2.7160555e-09
2.7484254e-09
-2.0108078e-09
-2.6963371e-09
2.0688685e-09
3.7563477e-09
-1.0805664e-09
-3.7033145e-09
1.1398116e-09
4.7856194e-09
-8.8135566e-11
-4.7319236e-09
1.4829072e-10
6.0468588e-09
1.411098e-09
-5.9927412e-09
-1.3503033e-09
7.3045377e-09
2.7500319e-09
-7.2502024e-09
-2.68886e-09
8.5430729e-09
4.368486e-09
-8.4886963e-09
-4.3071922e-09
9.5235543e-09
6.2593184e-09
-9.4692885e-09
-6.1981633e-09
1.022832e-08
8.1898729e-09
-1.0174301e-08
-8.1291274e-09
1.0861909e-08
1.0145395e-08
-1.0808266e-08
-1.0085341e-08
1.0964544e-08
1.2106817e-08
-1.0911402e-08
-1.2047748e-08
9.8572001e-09
1.493827e-08
-9.8046853e-09
-1.4880496e-08
9.7496806e-09
1.5505114e-08
-9.6979232e-09
-1.5448954e-08
9.5283302e-09
1.8213742e-08
-9.4774626e-09
-1.8159513e-08
6.976234e-09
1.8590802e-08
-6.9263841e-09
-1.853881e-08
6.5409e-09
1.881815e-08
-6.4921702e-09
-1.8768663e-08
6.0198208e-09
1.8857925e-08
-5.972256e-09
-1.8811133e-08
3.2174953e-09
1.8673744e-08
-3.1710302e-09
-1.8629702e-08
2.6016945e-09
1.8233391e-08
-2.5560821e-09
-1.8191947e-08
-2.3230876e-10
1.5293178e-08
2.7757839e-10
-1.5253897e-08
-8.1149264e-10
1.2059993e-08
8.5727452e-10
-1.2022092e-08
-3.5412965e-09
8.5407559e-09
3.5888235e-09
-8.5030892e-09
-3.956083e-09
4.7712591e-09
4.0068717e-09
-4.732446e-09
-4.2565462e-09
-3.6117715e-09
4.3120296e-09
3.6530082e-09
-4.4361191e-09
-7.61e-09
4.4972163e-09
7.6542341e-09
-6.7087372e-09
-1.3668382e-08
6.7745972e-09
1.3715006e-08
-4.3684261e-09
-1.4658612e-08
4.4415741e-09
1.4703031e-08
-3.8933726e-09
-1.4056665e-08
3.9403586e-09
1.4101231e-08
-3.3473193e-09
-8.2014992e-09
3.3574775e-09
8.2509248e-09
-2.5829056e-09
-1.7543596e-09
2.537892e-09
2.125651e-09
-2.4548498e-09
-2.0032891e-09
2.2639642e-09
2.167609e-09
-1.0708392e-08
-9.827672e-09
1.0577162e-08
9.7356449e-09
-1.3807053e-08
-1.281381e-08
1.3823361e-08
1.2642355e-08
-1.6331892e-08
-1.5457023e-08
1.6363707e-08
1.5320051e-08
-1.5196867e-08
-1.4982826e-08
1.5162927e-08
1.4861722e-08
-9.8776662e-09
-1.0418072e-08
9.7771022e-09
1.0271721e-08
-3.5495739e-09
-4.4781997e-09
3.3974396e-09
4.30238e-09
1.5063291e-09
5.5122447e-10
-1.6878881e-09
-7.4508367e-10
4.5431449e-09
3.7382781e-09
-4.7335968e-09
-3.9365206e-09
5.775078e-09
5.1826101e-09
-5.9597526e-09
-5.3741349e-09
5.7059981e-09
5.2951847e-09
-5.8758381e-09
-5.4725196e-09
4.8680284e-09
4.5761221e-09
-5.0182137e-09
-4.735007e-09
3.6788664e-09
3.4357392e-09
-3.8074506e-09
-3.5742732e-09
2.4192966e-09
2.1756302e-09
-2.5262041e-09
-2.2934993e-09
1.2594831e-09
9.7140216e-10
-1.3459382e-09
-1.0692878e-09
2.7461875e-10
-9.0274374e-11
-3.4232562e-10
1.1145833e-11
-5.2034208e-10
-9.816234e-10
4.6965342e-10
9.197381e-10
-1.1115728e-09
-1.7164208e-09
1.0761452e-09
1.6702776e-09
-1.586781e-09
-2.3071751e-09
1.5649095e-09
2.2752622e-09
-1.907741e-09
-2.7963421e-09
1.8978201e-09
2.7769347e-09
-2.0813025e-09
-3.1918479e-09
2.0818654e-09
3.1833584e-09
-2.2006749e-09
-3.5214464e-09
2.2104059e-09
3.5225839e-09
-2.201227e-09
-3.7879602e-09
2.218947e-09
3.7975838e-09
-2.1271292e-09
-3.9916487e-09
2.1517884e-09
4.008746e-09
-1.9544028e-09
-4.1307085e-09
1.985073e-09
4.1543042e-09
-1.6581559e-09
-4.2016509e-09
1.694023e-09
4.2308145e-09
-1.3020228e-09
-4.0887555e-09
1.342373e-09
4.1226845e-09
-7.0592664e-10
-4.0750229e-09
7.5013195e-10
4.1130241e-09
-6.8000938e-11
-3.7995956e-09
1.1550617e-10
3.8410514e-09
8.3380148e-10
-3.2566769e-09
-7.8348951e-10
3.3010436e-09
1.5539339e-09
-2.8846195e-09
-1.5012536e-09
2.9314248e-09
2.7542244e-09
-2.0128578e-09
-2.6995715e-09
2.0616948e-09
3.7626212e-09
-1.081361e-09
-3.7063579e-09
1.131878e-09
5.0141155e-09
-8.759757e-11
-4.9565757e-09
1.3949614e-10
6.053552e-09
1.1911493e-09
-5.9950491e-09
-1.1381171e-09
7.3111039e-09
2.7535006e-09
-7.2519408e-09
-2.6995505e-09
8.3273347e-09
4.3735107e-09
-8.2678085e-09
-4.318841e-09
9.3071365e-09
6.0440112e-09
-9.2475437e-09
-5.9888043e-09
1.0232836e-08
7.9761365e-09
-1.0173478e-08
-7.9205682e-09
1.0865154e-08
1.0155085e-08
-1.0806338e-08
-1.0099334e-08
1.1188158e-08
1.2117909e-08
-1.1130198e-08
-1.2062161e-08
1.2076249e-08
1.2731466e-08
-1.2019464e-08
-1.2675926e-08
9.7476674e-09
1.7737523e-08
-9.692379e-09
-1.7682411e-08
9.5242911e-09
1.822767e-08
-9.4708108e-09
-1.8173223e-08
9.1893145e-09
1.8604955e-08
-9.1379262e-09
-1.8551415e-08
6.5330126e-09
1.8832036e-08
-6.4839433e-09
-1.8779629e-08
6.0103849e-09
1.887098e-08
-5.9637577e-09
-1.8819875e-08
3.2069672e-09
2.090447e-08
-3.1627368e-09
-2.0854723e-08
2.5906841e-09
1.8242905e-08
-2.5485551e-09
-1.8194375e-08
-2.430573e-10
1.5299967e-08
2.8371824e-10
-1.5252235e-08
-3.0402677e-09
1.2063489e-08
3.080502e-09
-1.2015791e-08
-3.5490205e-09
8.5405289e-09
3.5902693e-09
-8.4917514e-09
-3.9611555e-09
4.7671135e-09
4.005059e-09
-4.7159591e-09
-6.4776372e-09
-1.4005824e-09
6.5255014e-09
1.4551688e-09
-6.6540192e-09
-7.62084e-09
6.7061175e-09
7.6791048e-09
-4.4856461e-09
-1.1460551e-08
4.5404945e-09
1.1521754e-08
-6.5811311e-09
-1.6879747e-08
6.634398e-09
1.6939502e-08
-3.8910292e-09
-1.4072733e-08
3.9263257e-09
1.411382e-08
-3.3525386e-09
-8.2478612e-09
3.373253e-09
8.2628381e-09
-2.6355744e-09
-1.7854763e-09
2.7837757e-09
2.3555614e-09
-2.4196802e-09
-2.3349757e-09
2.3992092e-09
2.3747127e-09
-9.9466363e-09
-9.4397116e-09
9.9627666e-09
9.1403098e-09
-1.3699922e-08
-1.2841566e-08
1.3847529e-08
1.2583743e-08
-1.6165195e-08
-1.5375464e-08
1.634052e-08
1.5191939e-08
-1.5131391e-08
-1.506874e-08
1.5249896e-08
1.4918944e-08
-9.9360986e-09
-1.0608052e-08
9.9794654e-09
1.0447771e-08
-3.6339961e-09
-4.6979577e-09
3.613291e-09
4.5235768e-09
1.4357728e-09
3.5130469e-10
-1.4998492e-09
-5.2934201e-10
4.5507814e-09
3.6522509e-09
-4.638527e-09
-3.8220823e-09
5.8092997e-09
5.1172874e-09
-5.9060433e-09
-5.2703253e-09
5.760232e-09
5.2660026e-09
-5.8566117e-09
-5.3978386e-09
4.9158665e-09
4.5770316e-09
-5.0063558e-09
-4.6865782e-09
3.7250056e-09
3.4511976e-09
-3.806521e-09
-3.5394035e-09
2.4613569e-09
2.1983268e-09
-2.5321429e-09
-2.2670841e-09
1.2947248e-09
9.9793074e-10
-1.3534647e-09
-1.0493716e-09
3.0195468e-10
-6.3821584e-11
-3.4816973e-10
2.7616257e-11
-4.974688e-10
-9.5732095e-10
4.6340856e-10
9.3453488e-10
-1.1233484e-09
-1.696498e-09
1.1007707e-09
1.6853807e-09
-1.5570012e-09
-2.2892787e-09
1.5450617e-09
2.2881269e-09
-1.8801621e-09
-2.7802869e-09
1.8779445e-09
2.7879897e-09
-2.0776227e-09
-3.155241e-09
2.0841895e-09
3.1709905e-09
-2.1983497e-09
-3.5084435e-09
2.2127651e-09
3.5313519e-09
-2.2000206e-09
-3.7762361e-09
2.2213793e-09
3.8054098e-09
-2.1047024e-09
-3.9812038e-09
2.1321466e-09
4.0157707e-09
-1.9328571e-09
-4.1214427e-09
1.9655806e-09
4.1606909e-09
-1.6374402e-09
-4.1712057e-09
1.6746919e-09
4.2145536e-09
-1.3043002e-09
-4.3033645e-09
1.3453895e-09
4.3502645e-09
-7.0899124e-10
-4.0686817e-09
7.5328497e-10
4.1186261e-09
-7.1834338e-11
-3.7942475e-09
1.187624e-10
3.8467801e-09
8.292338e-10
-3.2523697e-09
-7.8017741e-10
3.3070842e-09
1.5486879e-09
-2.6595037e-09
-1.4979499e-09
2.7160351e-09
2.7483885e-09
-2.0108296e-09
-2.6963583e-09
2.0688507e-09
3.7563204e-09
-1.0805821e-09
-3.7033316e-09
1.1397965e-09
4.7855995e-09
-8.8149933e-11
-4.7319368e-09
1.4827863e-10
6.0468439e-09
1.4110851e-09
-5.992751e-09
-1.3503132e-09
7.3045264e-09
2.7500214e-09
-7.2502104e-09
-2.6888685e-09
8.5430651e-09
4.3684777e-09
-8.4887024e-09
-4.3071992e-09
9.5235487e-09
6.259312e-09
-9.4692929e-09
-6.1981686e-09
1.0228315e-08
8.1898678e-09
-1.0174305e-08
-8.1291314e-09
1.0861906e-08
1.0145391e-08
-1.0808269e-08
-1.0085344e-08
1.0964541e-08
1.2106814e-08
-1.0911404e-08
-1.2047751e-08
9.8571985e-09
1.4938267e-08
-9.8046869e-09
-1.4880498e-08
9.7496795e-09
1.5505113e-08
-9.6979243e-09
-1.5448955e-08
9.5283291e-09
1.821374e-08
-9.4774635e-09
-1.8159514e-08
6.9762336e-09
1.8590801e-08
-6.9263848e-09
-1.8538811e-08
6.5409001e-09
1.8818149e-08
-6.4921705e-09
-1.8768664e-08
6.0198209e-09
1.8857924e-08
-5.9722564e-09
-1.8811133e-08
3.217495e-09
1.8673743e-08
-3.1710304e-09
-1.8629703e-08
2.601694e-09
1.823339e-08
-2.5560822e-09
-1.8191948e-08
-2.3230901e-10
1.5293177e-08
2.7757812e-10
-1.5253897e-08
-8.114926e-10
1.2059993e-08
8.572741e-10
-1.2022092e-08
-3.5412966e-09
8.5407562e-09
3.5888238e-09
-8.5030897e-09
-3.9560832e-09
4.7712588e-09
4.0068719e-09
-4.7324462e-09
-4.2565461e-09
-3.6117718e-09
4.3120292e-09
3.6530079e-09
-4.4361192e-09
-7.6100004e-09
4.4972163e-09
7.6542338e-09
-6.7087371e-09
-1.3668383e-08
6.7745972e-09
1.3715006e-08
-4.3684262e-09
-1.4658612e-08
4.441574e-09
1.4703031e-08
-3.8933726e-09
-1.4056665e-08
3.9403585e-09
1.4101231e-08
-3.3473193e-09
-8.2014994e-09
3.3574775e-09
8.2509248e-09
-2.6538968e-09
-1.6931626e-09
2.5669054e-09
2.163614e-09
-2.4775691e-09
-1.965405e-09
2.3314128e-09
2.2242167e-09
-1.0670391e-08
-9.8138325e-09
1.065685e-08
9.792518e-09
-1.3740965e-08
-1.2810236e-08
1.3887501e-08
1.2679761e-08
-1.6266336e-08
-1.5460491e-08
1.6406164e-08
1.5335956e-08
-1.514671e-08
-1.4989722e-08
1.5187147e-08
1.4862053e-08
-9.8227792e-09
-1.0403934e-08
9.7659907e-09
1.0241241e-08
-3.5312282e-09
-4.4860033e-09
3.4002942e-09
4.2907606e-09
1.514567e-09
5.4440999e-10
-1.6896491e-09
-7.5680204e-10
4.5450287e-09
3.7549336e-09
-4.737664e-09
-3.9689028e-09
5.7734661e-09
5.1783797e-09
-5.9646256e-09
-5.3822067e-09
5.7028367e-09
5.2921294e-09
-5.8806275e-09
-5.4784707e-09
4.8644947e-09
4.5740189e-09
-5.0224738e-09
-4.7391317e-09
3.673364e-09
3.4343614e-09
-3.8087898e-09
-3.5769715e-09
2.4164713e-09
2.1747835e-09
-2.5290459e-09
-2.2951576e-09
1.2569215e-09
9.707011e-10
-1.3479107e-09
-1.0700019e-09
2.7275769e-10
-9.0510619e-11
-3.4397602e-10
1.0688679e-11
-5.2177141e-10
-9.8170564e-10
4.6843581e-10
9.1957529e-10
-1.1126411e-09
-1.7164111e-09
1.0752625e-09
1.6702868e-09
-1.5875637e-09
-2.3071163e-09
1.5642829e-09
2.2753699e-09
-1.9083069e-09
-2.7962633e-09
1.8973831e-09
2.7770781e-09
-2.0817062e-09
-3.1917664e-09
2.0815648e-09
3.1835036e-09
-2.2009602e-09
-3.5213717e-09
2.2102008e-09
3.5227203e-09
-2.2014272e-09
-3.7878948e-09
2.2188071e-09
3.7977025e-09
-2.1272683e-09
-3.9915938e-09
2.1516935e-09
4.0088457e-09
-1.9544983e-09
-4.1306632e-09
1.9850092e-09
4.1543848e-09
-1.6582219e-09
-4.2016144e-09
1.6939805e-09
4.2308768e-09
-1.3020686e-09
-4.0887275e-09
1.3423444e-09
4.1227329e-09
-7.0595809e-10
-4.0750016e-09
7.5011233e-10
4.1130612e-09
-6.8022991e-11
-3.7995793e-09
1.1549369e-10
3.8410785e-09
8.3378663e-10
-3.2566648e-09
-7.8349747e-10
3.3010637e-09
1.5539238e-09
-2.8846104e-09
-1.5012589e-09
2.9314394e-09
2.7542177e-09
-2.0128513e-09
-2.6995751e-09
2.0617049e-09
3.7626175e-09
-1.0813568e-09
-3.7063603e-09
1.1318848e-09
5.014113e-09
-8.7594588e-11
-4.9565768e-09
1.39501e-10
6.0535503e-09
1.1911515e-09
-5.9950498e-09
-1.1381142e-09
7.3111031e-09
2.7535016e-09
-7.2519405e-09
-2.6995489e-09
8.3273349e-09
4.373511e-09
-8.2678079e-09
-4.3188398e-09
9.3071366e-09
6.0440116e-09
-9.2475432e-09
-5.9888037e-09
1.0232836e-08
7.9761367e-09
-1.0173477e-08
-7.9205681e-09
1.0865155e-08
1.0155085e-08
-1.0806337e-08
-1.0099334e-08
1.1188159e-08
1.2117909e-08
-1.1130197e-08
-1.2062162e-08
1.207625e-08
1.2731465e-08
-1.2019464e-08
-1.2675926e-08
9.747668e-09
1.7737522e-08
-9.6923787e-09
-1.7682411e-08
9.5242919e-09
1.8227669e-08
-9.4708104e-09
-1.8173223e-08
9.1893151e-09
1.8604955e-08
-9.1379258e-09
-1.8551416e-08
6.5330131e-09
1.8832036e-08
-6.4839428e-09
-1.8779629e-08
6.0103855e-09
1.8870979e-08
-5.9637576e-09
-1.8819875e-08
3.2069675e-09
2.090447e-08
-3.162737e-09
-2.0854723e-08
2.590684e-09
1.8242905e-08
-2.5485552e-09
-1.8194375e-08
-2.4305735e-10
1.5299966e-08
2.8371862e-10
-1.5252235e-08
-3.0402677e-09
1.2063488e-08
3.0805023e-09
-1.2015791e-08
-3.5490201e-09
8.5405289e-09
3.5902692e-09
-8.4917514e-09
-3.961155e-09
4.7671135e-09
4.005059e-09
-4.7159592e-09
-6.4776372e-09
-1.4005825e-09
6.5255014e-09
1.4551687e-09
-6.6540191e-09
-7.6208401e-09
6.7061175e-09
7.6791048e-09
-4.485646e-09
-1.1460551e-08
4.5404945e-09
1.1521754e-08
-6.5811311e-09
-1.6879747e-08
6.634398e-09
1.6939502e-08
-3.8910291e-09
-1.4072733e-08
3.9263257e-09
1.411382e-08
-3.3525386e-09
-8.2478612e-09
3.373253e-09
8.2628381e-09
)
;

boundaryField
{
    movingWall
    {
        type            calculated;
        value           nonuniform List<scalar> 
16
(
-3.1611801e-09
-3.1686244e-09
-3.1611801e-09
-3.1686244e-09
-7.6411696e-09
-7.6951469e-09
-7.6411698e-09
-7.6951469e-09
3.1661505e-09
3.1904106e-09
3.1661505e-09
3.1904107e-09
7.6922231e-09
7.7000608e-09
7.6922231e-09
7.7000608e-09
)
;
    }
    CPLReceiveMD
    {
        type            calculated;
        value           nonuniform List<scalar> 
16
(
-7.2723126e-09
-2.545587e-09
-2.7579396e-09
-2.6225953e-09
-2.1606272e-09
-1.6124093e-09
-1.6324394e-09
-1.5507554e-09
2.5465694e-09
2.6008983e-09
3.0384176e-09
2.6106512e-09
1.8772339e-09
2.0278277e-09
2.3677069e-09
2.0517714e-09
)
;
    }
    streamwiseIn
    {
        type            cyclic;
    }
    streamwiseOut
    {
        type            cyclic;
    }
    front
    {
        type            cyclic;
    }
    back
    {
        type            cyclic;
    }
}


// ************************************************************************* //
