/*--------------------------------*- C++ -*----------------------------------*\
| =========                 |                                                 |
| \\      /  F ield         | OpenFOAM: The Open Source CFD Toolbox           |
|  \\    /   O peration     | Version:  3.0.x                                 |
|   \\  /    A nd           | Web:      www.OpenFOAM.org                      |
|    \\/     M anipulation  |                                                 |
\*---------------------------------------------------------------------------*/
FoamFile
{
    version     2.0;
    format      ascii;
    class       volScalarField;
    location    "150";
    object      sigmazz;
}
// * * * * * * * * * * * * * * * * * * * * * * * * * * * * * * * * * * * * * //

dimensions      [0 2 -2 0 0 0 0];

internalField   nonuniform List<scalar> 
960
(
-3.4294534e-09
4.3518383e-10
-7.2987284e-11
-7.2795735e-10
-7.9764348e-10
-4.337303e-10
2.6630301e-10
2.4159856e-10
2.5245435e-09
6.9876156e-10
-1.1239668e-09
-7.2520075e-10
1.4690219e-09
2.7027498e-10
-2.3300477e-10
-2.5668893e-10
1.1998098e-09
3.6661647e-10
-1.6979775e-10
-3.32715e-10
7.6674419e-10
3.8091678e-10
-2.6827219e-11
-3.7082475e-10
4.8838916e-10
2.2561351e-10
3.0334202e-11
-2.7704976e-10
3.6689217e-10
1.6062586e-10
-3.4377105e-11
-2.6474993e-10
2.9677737e-10
1.3974017e-10
-1.0154621e-10
-2.7243977e-10
2.3985901e-10
1.060163e-10
-1.3636501e-10
-2.4507452e-10
1.8678281e-10
9.2034948e-11
-1.4175e-10
-2.2242344e-10
1.4847125e-10
8.3536893e-11
-1.3914824e-10
-1.9716631e-10
1.1210581e-10
5.9140511e-11
-1.2314994e-10
-1.5295256e-10
7.783854e-11
3.9799228e-11
-9.9001368e-11
-1.1380896e-10
4.9906103e-11
2.222418e-11
-7.4408703e-11
-7.7990704e-11
2.3106887e-11
2.0753404e-12
-4.6460549e-11
-4.1706363e-11
-2.7080323e-12
-1.7922582e-11
-1.6650327e-11
-7.7088158e-12
-2.7510526e-11
-4.0080432e-11
1.385481e-11
2.6485879e-11
-4.7081764e-11
-6.0997353e-11
4.0029408e-11
5.7688989e-11
-8.4181718e-11
-8.8580367e-11
8.4083177e-11
9.4231579e-11
-1.0987716e-10
-1.1418559e-10
1.16717e-10
1.2791265e-10
-1.4246572e-10
-1.5682019e-10
1.5596348e-10
1.7771701e-10
-1.6449248e-10
-1.7766035e-10
1.8420235e-10
2.0478512e-10
-2.0031213e-10
-2.1288059e-10
2.2570975e-10
2.4543534e-10
-2.3877965e-10
-2.5174069e-10
2.6930302e-10
2.8902028e-10
-2.6712756e-10
-2.923719e-10
3.0219925e-10
3.3379692e-10
-3.0492921e-10
-3.4233662e-10
3.4397264e-10
3.8742878e-10
-3.0491985e-10
-3.0823233e-10
3.4737279e-10
3.5651994e-10
-3.7554267e-10
-4.0657349e-10
4.2087262e-10
4.5760218e-10
-4.042683e-10
-4.6513396e-10
4.5198276e-10
5.1850771e-10
-5.0191444e-10
-5.8909224e-10
5.5156548e-10
6.4445596e-10
-4.4827811e-10
-6.6204051e-10
4.9946529e-10
7.1907106e-10
-5.8011079e-10
-6.7916492e-10
6.324805e-10
7.3756713e-10
-5.7082899e-10
-7.4756863e-10
6.2407376e-10
8.0707351e-10
-5.4018858e-10
-7.5377362e-10
5.9404341e-10
8.1412556e-10
-6.104416e-10
-9.189044e-10
6.6467871e-10
9.7984783e-10
-6.8424992e-10
-9.1146086e-10
7.3867508e-10
9.7274501e-10
-7.7719811e-10
-9.5736076e-10
8.3164232e-10
1.0187392e-09
-7.9532928e-10
-1.063747e-09
8.4964597e-10
1.1249657e-09
-7.5630605e-10
-1.1304085e-09
8.1036325e-10
1.1912018e-09
-7.8845745e-10
-1.1721002e-09
8.421293e-10
1.2321908e-09
-6.8582651e-10
-1.2078911e-09
7.3899038e-10
1.2669866e-09
-1.2883261e-10
-1.7051219e-09
1.8136383e-10
1.7629157e-09
-2.3635409e-10
-1.1382799e-09
2.88124e-10
1.1944556e-09
-4.5770598e-10
-1.7583343e-09
5.0858306e-10
1.8125744e-09
3.1887702e-10
-1.3812758e-09
-2.6901991e-10
1.4332761e-09
-1.1645785e-10
-1.1539288e-09
1.6519318e-10
1.2034224e-09
-6.375377e-10
-1.1141546e-09
6.851066e-10
1.1609513e-09
-1.1118342e-10
-1.2983366e-09
1.5765172e-10
1.3423817e-09
-7.2698452e-10
-1.7386899e-09
7.725994e-10
1.7801357e-09
-2.3230782e-10
-1.350223e-09
2.775793e-10
1.389505e-09
-8.1149192e-10
-1.2547275e-09
8.5727521e-10
1.2926302e-09
-2.1261562e-10
-1.4452845e-09
2.6014373e-10
1.4829522e-09
-6.2740232e-10
-1.8861012e-09
6.7819177e-10
1.9249149e-09
-9.2786549e-10
-2.8309099e-10
9.8334969e-10
3.2432811e-10
-1.1074386e-09
-9.526393e-10
1.1685363e-09
9.9687367e-10
-5.1376303e-11
-3.5366117e-10
1.1723679e-10
4.0028469e-10
-1.0397456e-09
-1.3438907e-09
1.112894e-09
1.38831e-09
-5.646922e-10
-7.4194372e-10
6.116784e-10
7.8650953e-10
-1.8638887e-11
-1.5441387e-09
2.879728e-11
1.5935642e-09
7.4429489e-10
1.2778441e-09
-7.3139889e-10
-8.1993217e-10
-4.4702725e-10
-3.1327602e-10
3.2983108e-10
5.4610798e-10
9.6436399e-10
5.1001973e-10
-1.0124926e-09
-5.4547548e-10
2.0442779e-10
-1.5128774e-10
-1.016676e-10
2.5017865e-11
3.4595577e-10
1.9686788e-10
-2.3179691e-10
-3.0048037e-10
2.1502044e-10
2.6800208e-10
-1.7614985e-10
-3.6664633e-10
7.1331867e-11
1.6982626e-10
-1.1126161e-10
-3.027587e-10
3.6553321e-11
1.1609621e-10
-1.4058087e-10
-2.8533031e-10
2.761458e-11
8.4639297e-11
-1.7256697e-10
-2.7663632e-10
3.0562389e-11
7.5420907e-11
-1.94188e-10
-2.7475826e-10
2.6885821e-11
5.4797518e-11
-1.9259075e-10
-2.4903015e-10
2.1221827e-11
3.4161962e-11
-1.7811709e-10
-2.148765e-10
1.3034863e-11
1.4223516e-11
-1.5472737e-10
-1.7656122e-10
3.819071e-12
-8.7631956e-13
-1.2708581e-10
-1.408392e-10
-5.3968355e-12
-1.5835536e-11
-9.8395961e-11
-1.0477857e-10
-1.8325609e-11
-3.1168106e-11
-6.6492859e-11
-6.8975001e-11
-3.4436312e-11
-4.7766726e-11
-3.2587349e-11
-3.3148934e-11
-5.0838348e-11
-6.6824013e-11
2.4791817e-13
3.5691662e-12
-7.9732146e-11
-8.5807978e-11
4.4068262e-11
3.8645629e-11
-8.9039722e-11
-1.1056878e-10
6.6762308e-11
7.7920208e-11
-1.1047174e-10
-1.3362903e-10
1.0007879e-10
1.1370487e-10
-1.5090102e-10
-1.6291063e-10
1.5098791e-10
1.5406961e-10
-1.7040569e-10
-1.9287655e-10
1.7969105e-10
1.9378388e-10
-2.0422534e-10
-2.2634533e-10
2.2154684e-10
2.3582567e-10
-2.2996357e-10
-2.635732e-10
2.5427712e-10
2.8058793e-10
-2.5693228e-10
-3.0275393e-10
2.8730939e-10
3.2630805e-10
-2.9352894e-10
-3.4039705e-10
3.2915146e-10
3.6954568e-10
-3.0352834e-10
-4.2721413e-10
3.4367705e-10
4.611447e-10
-3.7314872e-10
-4.1347636e-10
4.1718958e-10
4.5148846e-10
-4.0094234e-10
-4.7091402e-10
4.4831452e-10
5.123854e-10
-4.9772991e-10
-5.9372972e-10
5.4793501e-10
6.3811365e-10
-4.433218e-10
-5.545396e-10
4.9591687e-10
6.013619e-10
-5.7449377e-10
-6.813819e-10
6.29079e-10
7.3023456e-10
-5.6469322e-10
-7.4848938e-10
6.2090312e-10
7.9902021e-10
-6.4466456e-10
-7.5333048e-10
7.0216262e-10
8.0524081e-10
-6.0382704e-10
-8.0605619e-10
6.6229733e-10
8.5909814e-10
-6.7774317e-10
-9.080456e-10
7.3688105e-10
9.6200351e-10
-6.6011312e-10
-9.5237607e-10
7.1961991e-10
1.0070519e-09
-6.7891285e-10
-9.4621616e-10
7.3849085e-10
1.0014279e-09
-7.5181541e-10
-1.0112994e-09
8.1116219e-10
1.0668714e-09
-7.8523173e-10
-1.1624269e-09
8.4403965e-10
1.2181814e-09
-7.9509431e-10
-1.1968116e-09
8.5304878e-10
1.2525612e-09
-1.2384745e-09
-5.8325523e-10
1.2952547e-09
6.3879663e-10
-2.3837542e-10
-2.2345591e-09
2.9366037e-10
2.2896718e-09
-4.6175114e-10
-1.744412e-09
5.1522902e-10
1.7988595e-09
-7.9672731e-10
-1.3671265e-09
8.4811388e-10
1.4206668e-09
-1.2434862e-10
-1.1400458e-09
1.7341678e-10
1.1924535e-09
-6.4697608e-10
-1.1011023e-09
6.9360244e-10
1.1522069e-09
-1.2171338e-10
-2.3962922e-09
1.6594321e-10
2.4460391e-09
-7.3799631e-10
-1.7291769e-09
7.8012503e-10
1.7777073e-09
-2.4305737e-10
-1.3434351e-09
2.8371812e-10
1.3911667e-09
2.8841259e-10
-1.2512327e-09
-2.4817846e-10
1.2989304e-09
-2.2034026e-10
-1.4455121e-09
2.6158893e-10
1.4942895e-09
-6.3247517e-10
-1.8902472e-09
6.7637864e-10
1.9414015e-09
1.7972348e-10
-1.4005825e-09
-1.3185919e-10
1.4551687e-09
3.341505e-12
-9.6347948e-10
4.8756899e-11
1.0217442e-09
-1.1569657e-09
-1.4745101e-09
1.2118142e-09
1.5357127e-09
7.6229546e-11
-2.3634599e-10
-2.2962598e-11
2.9610075e-10
-5.6234889e-10
-7.5801141e-10
5.9764545e-10
7.9909851e-10
-2.3858335e-11
-1.5905006e-09
4.4572702e-11
1.6054775e-09
-2.5732557e-11
8.978891e-10
-1.6659381e-10
-3.109375e-10
-6.6685477e-10
-3.1029658e-10
6.8781234e-11
3.824993e-10
6.3729232e-10
5.2894407e-10
-1.3964342e-09
-8.7795105e-10
-4.6483703e-11
1.0287951e-10
-5.2145564e-10
-4.4084358e-10
-5.388063e-11
2.2855776e-10
-3.605504e-10
-4.9224067e-10
-1.2558625e-10
2.7084049e-10
-2.1620354e-10
-4.9316019e-10
-1.8716287e-10
1.4073328e-10
-1.2198536e-10
-3.6613377e-10
-1.3204601e-10
9.5340642e-11
-1.5766641e-10
-3.2872627e-10
-6.3992652e-11
8.796468e-11
-2.0532523e-10
-3.1955385e-10
-3.4791827e-11
6.332943e-11
-2.0955865e-10
-2.8143501e-10
-9.0155984e-12
6.6909117e-11
-2.0722645e-10
-2.6298423e-10
-8.2948945e-13
5.2303631e-11
-1.8671413e-10
-2.2202783e-10
4.850313e-12
3.2028544e-11
-1.6483446e-10
-1.7451345e-10
-1.0080651e-12
1.7377732e-11
-1.3344101e-10
-1.3387908e-10
-9.829723e-12
1.9081333e-12
-1.0122787e-10
-9.4706486e-11
-2.1790988e-11
-1.4971204e-11
-6.7623663e-11
-5.6695827e-11
-3.6244394e-11
-3.2635045e-11
-3.3367086e-11
-2.0433598e-11
-5.2821422e-11
-5.2414034e-11
8.9846658e-13
1.5687324e-11
-6.664649e-11
-7.1240882e-11
3.042241e-11
4.8692674e-11
-9.8703716e-11
-9.7014621e-11
7.6340183e-11
8.6611817e-11
-1.2068246e-10
-1.2107423e-10
1.1050757e-10
1.2137782e-10
-1.5051708e-10
-1.6239833e-10
1.5101475e-10
1.7227392e-10
-1.7049485e-10
-1.8211671e-10
1.8028572e-10
2.0038636e-10
-2.0478875e-10
-2.1640689e-10
2.2262794e-10
2.4193288e-10
-2.4212099e-10
-2.5453606e-10
2.6689065e-10
2.8625429e-10
-2.6962446e-10
-2.9459098e-10
3.0031903e-10
3.3162559e-10
-3.0679653e-10
-3.4409355e-10
3.425122e-10
3.8573304e-10
-3.0631555e-10
-3.0961471e-10
3.462438e-10
3.5520132e-10
-3.7658612e-10
-4.0764251e-10
4.2000364e-10
4.5658e-10
-4.0504818e-10
-4.6595529e-10
4.5131582e-10
5.1771763e-10
-5.0249661e-10
-5.8972087e-10
5.5105573e-10
6.4384721e-10
-4.4871324e-10
-6.6252018e-10
4.9907699e-10
7.1860316e-10
-5.8043595e-10
-6.7952827e-10
6.3218473e-10
7.3720784e-10
-5.7107169e-10
-7.4784381e-10
6.2384895e-10
8.0679849e-10
-5.4036951e-10
-7.53984e-10
5.9387311e-10
8.1391592e-10
-6.1057697e-10
-9.1906495e-10
6.6455033e-10
9.7968805e-10
-6.8435145e-10
-9.1158251e-10
7.3857753e-10
9.7262315e-10
-7.7727357e-10
-9.5745256e-10
8.3156866e-10
1.0186464e-09
-7.9538558e-10
-1.0638161e-09
8.4959049e-10
1.1248957e-09
-7.5634871e-10
-1.1304605e-09
8.1032099e-10
1.1911491e-09
-7.8848957e-10
-1.1721395e-09
8.420976e-10
1.2321506e-09
-6.8585042e-10
-1.2079205e-09
7.3896641e-10
1.266956e-09
-1.2885061e-10
-1.7051438e-09
1.8134574e-10
1.7628928e-09
-2.3636767e-10
-1.1382962e-09
2.8811036e-10
1.1944388e-09
-4.5771653e-10
-1.7583468e-09
5.0857268e-10
1.812562e-09
3.1886934e-10
-1.3812851e-09
-2.6902782e-10
1.4332663e-09
-1.1646328e-10
-1.1539353e-09
1.6518734e-10
1.2034149e-09
-6.3754184e-10
-1.1141596e-09
6.851021e-10
1.1609461e-09
-1.1118689e-10
-1.2983401e-09
1.5764831e-10
1.3423775e-09
-7.2698748e-10
-1.7386928e-09
7.7259694e-10
1.7801326e-09
-2.3230996e-10
-1.3502254e-09
2.7757721e-10
1.3895034e-09
-8.1149332e-10
-1.2547288e-09
8.5727341e-10
1.2926289e-09
-2.1261681e-10
-1.4452851e-09
2.6014302e-10
1.4829507e-09
-6.2740334e-10
-1.8861021e-09
6.7819122e-10
1.924914e-09
-9.2786609e-10
-2.8309173e-10
9.8334863e-10
3.2432736e-10
-1.1074391e-09
-9.5263994e-10
1.1685357e-09
9.9687299e-10
-5.1376802e-11
-3.5366175e-10
1.1723637e-10
4.0028454e-10
-1.0397461e-09
-1.3438908e-09
1.1128936e-09
1.38831e-09
-5.6469251e-10
-7.4194376e-10
6.1167808e-10
7.8650946e-10
-1.8639079e-11
-1.5441388e-09
2.8797124e-11
1.5935641e-09
6.762633e-10
1.2662583e-09
-8.2116433e-10
-8.824274e-10
-4.9097528e-10
-3.2673787e-10
2.7112959e-10
5.1703745e-10
9.5761527e-10
4.8629362e-10
-1.0542573e-09
-5.6417951e-10
2.0846886e-10
-1.7478811e-10
-1.483854e-10
-8.7165679e-13
3.4261962e-10
1.7521303e-10
-2.8513503e-10
-3.3310695e-10
1.9840864e-10
2.501609e-10
-2.3078261e-10
-4.0029077e-10
3.3870495e-11
1.4528713e-10
-1.5129328e-10
-3.2139843e-10
6.0203932e-12
1.0685841e-10
-1.8506112e-10
-3.0868667e-10
-2.5307385e-12
7.8964676e-11
-2.0915799e-10
-2.9321891e-10
3.6007642e-12
6.1407414e-11
-2.2306245e-10
-2.7428161e-10
4.4243707e-12
5.3856941e-11
-2.1455364e-10
-2.549761e-10
3.5264398e-12
3.4522331e-11
-1.9426185e-10
-2.1748406e-10
-2.5824452e-13
1.5333423e-11
-1.6621365e-10
-1.7699348e-10
-4.6434577e-12
5.8081442e-13
-1.3609975e-10
-1.4000934e-10
-1.2051115e-11
-1.4294082e-11
-1.0363819e-10
-1.0333502e-10
-2.2694883e-11
-2.9595561e-11
-6.9930957e-11
-6.7447799e-11
-3.7321777e-11
-4.647258e-11
-3.4579752e-11
-3.1562242e-11
-5.2587291e-11
-6.5730864e-11
-8.4653383e-13
4.9700693e-12
-8.0699997e-11
-8.4917232e-11
4.3557647e-11
3.9812116e-11
-8.9492686e-11
-1.0986462e-10
6.6617862e-11
7.8853912e-11
-1.1060151e-10
-1.330879e-10
1.001497e-10
1.1441941e-10
-1.5083861e-10
-1.6250559e-10
1.5117311e-10
1.5459429e-10
-1.7023943e-10
-1.9258095e-10
1.7992566e-10
1.9415972e-10
-2.0401246e-10
-2.2613384e-10
2.2179091e-10
2.3608479e-10
-2.2973837e-10
-2.6342544e-10
2.545092e-10
2.8075991e-10
-2.5671486e-10
-3.0265302e-10
2.8751885e-10
3.2641624e-10
-2.9333104e-10
-3.4033005e-10
3.2933424e-10
3.6960738e-10
-3.0335485e-10
-4.2717222e-10
3.4383218e-10
4.6117608e-10
-3.7299996e-10
-4.1345151e-10
4.1731864e-10
4.5150011e-10
-4.0081765e-10
-4.7090033e-10
4.484214e-10
5.1238389e-10
-4.9762622e-10
-5.9372353e-10
5.4802226e-10
6.3810512e-10
-4.4323684e-10
-5.5453788e-10
4.9598701e-10
6.0134982e-10
-5.7442476e-10
-6.81383e-10
6.2913497e-10
7.302209e-10
-5.6463694e-10
-7.4849239e-10
6.2094745e-10
7.9900654e-10
-6.4461989e-10
-7.5333381e-10
7.0219791e-10
8.0522845e-10
-6.0379187e-10
-8.0605931e-10
6.6232498e-10
8.5908695e-10
-6.7771525e-10
-9.0804894e-10
7.3690308e-10
9.619937e-10
-6.600909e-10
-9.5237924e-10
7.1963724e-10
1.0070442e-09
-6.7889584e-10
-9.4621834e-10
7.3850409e-10
1.0014214e-09
-7.5180239e-10
-1.0113011e-09
8.1117241e-10
1.066866e-09
-7.8522132e-10
-1.1624283e-09
8.4404748e-10
1.218177e-09
-7.950865e-10
-1.1968126e-09
8.5305474e-10
1.2525579e-09
-1.2384687e-09
-5.8325648e-10
1.2952592e-09
6.3879429e-10
-2.3837098e-10
-2.2345597e-09
2.9366374e-10
2.2896703e-09
-4.6174769e-10
-1.7444125e-09
5.1523163e-10
1.7988584e-09
-7.9672479e-10
-1.3671267e-09
8.481159e-10
1.4206656e-09
-1.2434687e-10
-1.1400455e-09
1.734184e-10
1.1924526e-09
-6.4697464e-10
-1.1011023e-09
6.9360341e-10
1.1522064e-09
-1.2171259e-10
-2.3962922e-09
1.6594357e-10
2.4460392e-09
-7.3799611e-10
-1.7291769e-09
7.8012527e-10
1.777707e-09
-2.4305728e-10
-1.3434349e-09
2.8371872e-10
1.3911662e-09
2.8841261e-10
-1.2512325e-09
-2.4817793e-10
1.2989304e-09
-2.2033982e-10
-1.4455119e-09
2.6158901e-10
1.4942895e-09
-6.3247479e-10
-1.8902471e-09
6.7637867e-10
1.9414015e-09
1.7972333e-10
-1.4005824e-09
-1.3185919e-10
1.4551688e-09
3.3413907e-12
-9.6347936e-10
4.8756837e-11
1.0217443e-09
-1.1569658e-09
-1.47451e-09
1.2118142e-09
1.5357128e-09
7.622942e-11
-2.3634591e-10
-2.2962557e-11
2.9610082e-10
-5.6234895e-10
-7.5801134e-10
5.9764543e-10
7.9909857e-10
-2.3858392e-11
-1.5905006e-09
4.4572699e-11
1.6054776e-09
)
;

boundaryField
{
    movingWall
    {
        type            calculated;
        value           nonuniform List<scalar> 
16
(
1.6750033e-10
1.6005588e-10
1.6750011e-10
1.6005581e-10
-9.8380898e-10
-1.0377863e-09
-9.8380917e-10
-1.0377863e-09
-1.6252973e-10
-1.3826969e-10
-1.6252984e-10
-1.3826964e-10
1.0348625e-09
1.0427002e-09
1.0348625e-09
1.0427002e-09
)
;
    }
    CPLReceiveMD
    {
        type            calculated;
        value           nonuniform List<scalar> 
16
(
-4.5562659e-09
7.8161342e-10
-1.4809773e-10
7.0756488e-10
4.818959e-10
1.4197944e-09
1.050926e-09
1.4086655e-09
1.7105047e-10
-6.683926e-10
8.8048102e-11
-7.7741853e-10
-7.8215565e-10
-9.1775551e-10
-2.9879201e-10
-9.9426994e-10
)
;
    }
    streamwiseIn
    {
        type            cyclic;
    }
    streamwiseOut
    {
        type            cyclic;
    }
    front
    {
        type            cyclic;
    }
    back
    {
        type            cyclic;
    }
}


// ************************************************************************* //
