/*--------------------------------*- C++ -*----------------------------------*\
| =========                 |                                                 |
| \\      /  F ield         | OpenFOAM: The Open Source CFD Toolbox           |
|  \\    /   O peration     | Version:  3.0.x                                 |
|   \\  /    A nd           | Web:      www.OpenFOAM.org                      |
|    \\/     M anipulation  |                                                 |
\*---------------------------------------------------------------------------*/
FoamFile
{
    version     2.0;
    format      ascii;
    class       volScalarField;
    location    "150";
    object      sigmaxy;
}
// * * * * * * * * * * * * * * * * * * * * * * * * * * * * * * * * * * * * * //

dimensions      [0 2 -2 0 0 0 0];

internalField   nonuniform List<scalar> 
960
(
0.049657347
0.049657338
0.049657338
0.049657347
0.0075739674
0.0075739514
0.0075739525
0.0075739706
0.0052000271
0.0052000029
0.0052000037
0.0052000298
0.0055471305
0.0055471136
0.0055471149
0.0055471305
0.004875967
0.0048759544
0.0048759545
0.0048759663
0.003774372
0.0037743697
0.0037743699
0.0037743699
0.0027515039
0.0027515091
0.0027515099
0.0027515025
0.0019758606
0.001975865
0.0019758657
0.0019758605
0.0014455323
0.0014455314
0.001445532
0.0014455331
0.0011041468
0.0011041396
0.00110414
0.0011041479
0.00089172719
0.00089171522
0.00089171545
0.00089172815
0.00076130442
0.0007612897
0.00076128985
0.00076130517
0.0006811793
0.00068116357
0.00068116363
0.00068117979
0.00063231983
0.0006323041
0.00063230411
0.00063232
0.00060479559
0.00060478056
0.00060478048
0.00060479558
0.00059463799
0.00059462384
0.00059462368
0.00059463781
0.00060148316
0.00060146982
0.00060146958
0.00060148285
0.0006269706
0.00062695782
0.00062695752
0.00062697015
0.00067374592
0.00067373358
0.00067373308
0.00067374538
0.00074490018
0.00074488796
0.0007448873
0.00074489952
0.00084369852
0.0008436861
0.0008436854
0.00084369769
0.0009734863
0.00097347351
0.00097347262
0.00097348527
0.0011376906
0.0011376774
0.0011376762
0.0011376894
0.0013398625
0.0013398489
0.0013398474
0.001339861
0.0015837255
0.0015837113
0.0015837095
0.0015837238
0.0018732084
0.0018731937
0.0018731915
0.0018732064
0.0022124525
0.0022124368
0.0022124344
0.0022124499
0.0026057865
0.0026057708
0.0026057677
0.0026057838
0.0030576726
0.0030576573
0.0030576535
0.0030576701
0.0035726212
0.0035726059
0.0035726016
0.0035726183
0.0041550776
0.0041550616
0.0041550575
0.0041550742
0.0048092881
0.0048092722
0.0048092669
0.0048092841
0.0055391481
0.0055391325
0.0055391266
0.0055391435
0.0063480341
0.0063480191
0.0063480125
0.0063480302
0.0072386285
0.0072386148
0.0072386076
0.0072386245
0.0082127394
0.0082127268
0.0082127189
0.0082127348
0.0092711207
0.0092711094
0.0092711002
0.0092711161
0.010413299
0.010413289
0.01041328
0.010413295
0.011637416
0.011637408
0.011637398
0.011637413
0.012940089
0.012940083
0.012940073
0.012940086
0.014316295
0.014316291
0.014316281
0.014316294
0.01575929
0.015759285
0.01575928
0.01575929
0.017260562
0.017260557
0.017260552
0.017260559
0.018809828
0.018809829
0.01880982
0.018809826
0.020395097
0.020395101
0.020395093
0.020395102
0.022002744
0.02200275
0.022002737
0.02200275
0.023617669
0.023617679
0.023617666
0.023617669
0.025223499
0.025223505
0.0252235
0.025223501
0.026802837
0.026802845
0.026802842
0.02680284
0.028337552
0.028337556
0.028337554
0.02833755
0.029809104
0.029809103
0.029809103
0.029809097
0.031198927
0.031198934
0.031198929
0.031198929
0.032488804
0.032488812
0.032488808
0.032488807
0.033661266
0.03366126
0.033661258
0.033661251
0.034699952
0.034699945
0.034699944
0.034699937
0.035590041
0.035590033
0.035590038
0.035590033
0.036318574
0.03631857
0.036318574
0.036318565
0.036874778
0.036874777
0.036874787
0.036874768
0.037250317
0.037250313
0.037250335
0.037250312
0.037439511
0.037439525
0.037439551
0.037439511
0.049657347
0.049657338
0.049657338
0.049657349
0.0075739685
0.0075739538
0.007573954
0.0075739707
0.0052000276
0.0052000043
0.0052000044
0.0052000298
0.0055471285
0.0055471127
0.0055471136
0.0055471274
0.004875966
0.0048759532
0.0048759529
0.0048759645
0.0037743699
0.0037743676
0.0037743681
0.003774367
0.0027515026
0.0027515083
0.0027515086
0.0027515008
0.0019758606
0.0019758654
0.0019758657
0.0019758603
0.0014455332
0.0014455323
0.0014455325
0.0014455338
0.0011041479
0.0011041407
0.0011041408
0.0011041489
0.00089172806
0.00089171615
0.00089171623
0.000891729
0.00076130502
0.00076129035
0.00076129037
0.00076130571
0.00068117975
0.00068116395
0.00068116396
0.0006811801
0.00063232008
0.00063230434
0.00063230429
0.00063232018
0.00060479569
0.00060478067
0.00060478053
0.00060479563
0.000594638
0.00059462387
0.00059462365
0.00059463779
0.00060148311
0.00060146979
0.00060146951
0.00060148278
0.0006269705
0.00062695779
0.0006269574
0.00062697002
0.00067374586
0.00067373345
0.000673733
0.00067374529
0.00074490006
0.00074488776
0.00074488715
0.00074489946
0.0008436984
0.00084368603
0.00084368519
0.00084369756
0.00097348618
0.00097347344
0.00097347247
0.00097348514
0.0011376904
0.0011376772
0.001137676
0.0011376892
0.0013398624
0.0013398487
0.0013398472
0.0013398609
0.0015837254
0.0015837111
0.0015837094
0.0015837237
0.0018732082
0.0018731935
0.0018731913
0.0018732063
0.0022124521
0.002212437
0.0022124345
0.0022124501
0.0026057861
0.0026057704
0.0026057674
0.0026057833
0.0030576726
0.0030576566
0.0030576528
0.0030576694
0.0035726213
0.0035726059
0.0035726016
0.0035726183
0.0041550777
0.0041550616
0.0041550568
0.0041550742
0.0048092881
0.0048092722
0.0048092668
0.0048092841
0.0055391475
0.0055391325
0.0055391266
0.0055391435
0.0063480342
0.0063480191
0.0063480125
0.0063480296
0.0072386291
0.0072386148
0.0072386075
0.0072386245
0.0082127394
0.0082127268
0.0082127189
0.0082127355
0.00927112
0.0092711087
0.0092711002
0.0092711161
0.010413299
0.010413288
0.010413279
0.010413295
0.011637416
0.011637408
0.011637398
0.011637413
0.012940089
0.012940083
0.012940074
0.012940086
0.014316295
0.014316291
0.014316282
0.014316294
0.015759291
0.015759287
0.015759275
0.015759285
0.017260557
0.017260557
0.017260553
0.017260561
0.018809828
0.018809829
0.018809827
0.018809832
0.020395104
0.020395101
0.020395093
0.020395096
0.022002744
0.02200275
0.022002737
0.02200275
0.023617669
0.023617679
0.023617666
0.023617676
0.025223499
0.025223505
0.025223507
0.025223501
0.026802837
0.026802845
0.026802842
0.02680284
0.028337552
0.028337556
0.028337548
0.02833755
0.029809104
0.029809103
0.029809103
0.029809104
0.031198927
0.031198934
0.031198929
0.031198929
0.032488804
0.032488812
0.032488808
0.032488801
0.033661266
0.03366126
0.033661265
0.033661257
0.034699952
0.034699945
0.034699944
0.034699944
0.035590041
0.035590039
0.035590038
0.035590026
0.036318581
0.03631857
0.036318574
0.036318565
0.036874778
0.036874771
0.03687478
0.036874768
0.037250311
0.037250313
0.037250335
0.037250305
0.037439511
0.037439525
0.037439551
0.037439511
0.049657347
0.049657337
0.049657338
0.049657348
0.0075739674
0.0075739523
0.0075739525
0.0075739696
0.0052000271
0.0052000036
0.0052000037
0.0052000292
0.0055471305
0.0055471148
0.0055471149
0.00554713
0.004875967
0.0048759551
0.0048759545
0.0048759656
0.003774372
0.0037743697
0.0037743699
0.0037743692
0.0027515039
0.0027515094
0.0027515099
0.0027515021
0.0019758606
0.0019758653
0.0019758657
0.0019758603
0.0014455323
0.0014455316
0.001445532
0.001445533
0.0011041468
0.0011041398
0.00110414
0.0011041478
0.00089172719
0.00089171533
0.00089171545
0.0008917281
0.00076130435
0.00076128973
0.00076128986
0.00076130507
0.0006811793
0.00068116357
0.00068116363
0.00068117973
0.00063231983
0.00063230417
0.00063230411
0.00063231999
0.00060479559
0.00060478059
0.00060478048
0.00060479556
0.00059463799
0.00059462386
0.00059462368
0.0005946378
0.00060148316
0.00060146984
0.00060146958
0.00060148284
0.0006269706
0.00062695783
0.00062695752
0.00062697014
0.00067374592
0.00067373358
0.00067373308
0.00067374537
0.00074490018
0.00074488796
0.0007448873
0.00074489952
0.00084369852
0.0008436861
0.0008436854
0.00084369769
0.0009734863
0.00097347351
0.00097347262
0.00097348527
0.0011376906
0.0011376774
0.0011376762
0.0011376894
0.0013398625
0.0013398489
0.0013398474
0.001339861
0.0015837255
0.0015837113
0.0015837095
0.0015837238
0.0018732084
0.0018731937
0.0018731915
0.0018732064
0.0022124525
0.0022124368
0.0022124344
0.0022124499
0.0026057865
0.0026057708
0.0026057677
0.0026057838
0.0030576726
0.0030576573
0.0030576535
0.0030576701
0.0035726212
0.0035726059
0.0035726016
0.0035726183
0.0041550776
0.0041550616
0.0041550575
0.0041550742
0.0048092881
0.0048092722
0.0048092669
0.0048092841
0.0055391481
0.0055391325
0.0055391266
0.0055391435
0.0063480341
0.0063480191
0.0063480125
0.0063480302
0.0072386285
0.0072386148
0.0072386076
0.0072386245
0.0082127394
0.0082127268
0.0082127189
0.0082127348
0.0092711207
0.0092711094
0.0092711002
0.0092711161
0.010413299
0.010413289
0.01041328
0.010413295
0.011637416
0.011637408
0.011637398
0.011637413
0.012940089
0.012940083
0.012940073
0.012940086
0.014316295
0.014316291
0.014316281
0.014316294
0.01575929
0.015759285
0.01575928
0.01575929
0.017260562
0.017260557
0.017260552
0.017260559
0.018809828
0.018809829
0.01880982
0.018809826
0.020395097
0.020395101
0.020395093
0.020395102
0.022002744
0.02200275
0.022002737
0.02200275
0.023617669
0.023617679
0.023617666
0.023617669
0.025223499
0.025223505
0.0252235
0.025223501
0.026802837
0.026802845
0.026802842
0.02680284
0.028337552
0.028337556
0.028337554
0.02833755
0.029809104
0.029809103
0.029809103
0.029809097
0.031198927
0.031198934
0.031198929
0.031198929
0.032488804
0.032488812
0.032488808
0.032488807
0.033661266
0.03366126
0.033661258
0.033661251
0.034699952
0.034699945
0.034699944
0.034699937
0.035590041
0.035590033
0.035590038
0.035590033
0.036318574
0.03631857
0.036318574
0.036318565
0.036874778
0.036874777
0.036874787
0.036874768
0.037250317
0.037250313
0.037250335
0.037250312
0.037439511
0.037439525
0.037439551
0.037439511
0.049657347
0.049657338
0.049657338
0.049657349
0.0075739685
0.0075739538
0.007573954
0.0075739708
0.0052000276
0.0052000043
0.0052000044
0.0052000298
0.0055471285
0.0055471127
0.0055471136
0.0055471274
0.004875966
0.0048759532
0.0048759529
0.0048759645
0.0037743698
0.0037743676
0.0037743681
0.0037743669
0.0027515026
0.0027515083
0.0027515086
0.0027515008
0.0019758606
0.0019758654
0.0019758657
0.0019758603
0.0014455332
0.0014455323
0.0014455325
0.0014455338
0.0011041479
0.0011041407
0.0011041408
0.0011041489
0.00089172813
0.00089171615
0.00089171622
0.000891729
0.00076130502
0.00076129035
0.00076129037
0.00076130571
0.00068117975
0.00068116395
0.00068116396
0.00068118011
0.00063232008
0.00063230434
0.00063230429
0.00063232018
0.00060479569
0.00060478068
0.00060478053
0.00060479563
0.000594638
0.00059462387
0.00059462365
0.00059463778
0.00060148311
0.00060146979
0.00060146951
0.00060148277
0.0006269705
0.00062695779
0.0006269574
0.00062697002
0.00067374586
0.00067373345
0.000673733
0.00067374529
0.00074490006
0.00074488776
0.00074488715
0.00074489945
0.0008436984
0.00084368603
0.00084368519
0.00084369756
0.00097348618
0.00097347344
0.00097347247
0.00097348514
0.0011376904
0.0011376772
0.001137676
0.0011376892
0.0013398624
0.0013398487
0.0013398472
0.0013398609
0.0015837254
0.0015837111
0.0015837094
0.0015837237
0.0018732082
0.0018731935
0.0018731913
0.0018732063
0.0022124521
0.002212437
0.0022124345
0.0022124501
0.0026057861
0.0026057704
0.0026057674
0.0026057833
0.0030576726
0.0030576566
0.0030576528
0.0030576694
0.0035726213
0.0035726059
0.0035726016
0.0035726183
0.0041550777
0.0041550616
0.0041550568
0.0041550742
0.0048092881
0.0048092722
0.0048092668
0.0048092841
0.0055391475
0.0055391325
0.0055391266
0.0055391435
0.0063480342
0.0063480191
0.0063480125
0.0063480296
0.0072386291
0.0072386148
0.0072386075
0.0072386245
0.0082127394
0.0082127268
0.0082127189
0.0082127355
0.00927112
0.0092711087
0.0092711002
0.0092711161
0.010413299
0.010413288
0.010413279
0.010413295
0.011637416
0.011637408
0.011637398
0.011637413
0.012940089
0.012940083
0.012940074
0.012940086
0.014316295
0.014316291
0.014316282
0.014316294
0.015759291
0.015759287
0.015759275
0.015759285
0.017260557
0.017260557
0.017260553
0.017260561
0.018809828
0.018809829
0.018809827
0.018809832
0.020395104
0.020395101
0.020395093
0.020395096
0.022002744
0.02200275
0.022002737
0.02200275
0.023617669
0.023617679
0.023617666
0.023617676
0.025223499
0.025223505
0.025223507
0.025223501
0.026802837
0.026802845
0.026802842
0.02680284
0.028337552
0.028337556
0.028337548
0.02833755
0.029809104
0.029809103
0.029809103
0.029809104
0.031198927
0.031198934
0.031198929
0.031198929
0.032488804
0.032488812
0.032488808
0.032488801
0.033661266
0.03366126
0.033661265
0.033661257
0.034699952
0.034699945
0.034699944
0.034699944
0.035590041
0.035590039
0.035590038
0.035590026
0.036318581
0.03631857
0.036318574
0.036318565
0.036874778
0.036874771
0.03687478
0.036874768
0.037250311
0.037250313
0.037250335
0.037250305
0.037439511
0.037439525
0.037439551
0.037439511
)
;

boundaryField
{
    movingWall
    {
        type            calculated;
        value           nonuniform List<scalar> 
16
(
0.037486987
0.037486987
0.037486987
0.037486987
0.037487014
0.037487014
0.037487014
0.037487014
0.037487041
0.037487041
0.037487041
0.037487041
0.037486987
0.037486987
0.037486987
0.037486987
)
;
    }
    CPLReceiveMD
    {
        type            calculated;
        value           nonuniform List<scalar> 
16
(
0.088882371
0.088882374
0.088882371
0.088882374
0.088882352
0.088882353
0.08888235
0.088882353
0.08888235
0.08888235
0.08888235
0.08888235
0.088882372
0.088882379
0.088882374
0.088882379
)
;
    }
    streamwiseIn
    {
        type            cyclic;
    }
    streamwiseOut
    {
        type            cyclic;
    }
    front
    {
        type            cyclic;
    }
    back
    {
        type            cyclic;
    }
}


// ************************************************************************* //
