/*--------------------------------*- C++ -*----------------------------------*\
| =========                 |                                                 |
| \\      /  F ield         | OpenFOAM: The Open Source CFD Toolbox           |
|  \\    /   O peration     | Version:  3.0.x                                 |
|   \\  /    A nd           | Web:      www.OpenFOAM.org                      |
|    \\/     M anipulation  |                                                 |
\*---------------------------------------------------------------------------*/
FoamFile
{
    version     2.0;
    format      ascii;
    class       volScalarField;
    location    "150";
    object      sigmaxz;
}
// * * * * * * * * * * * * * * * * * * * * * * * * * * * * * * * * * * * * * //

dimensions      [0 2 -2 0 0 0 0];

internalField   nonuniform List<scalar> 
960
(
3.4594207e-12
-1.5217316e-11
-3.459423e-12
1.5217316e-11
4.291532e-12
-1.3115168e-11
-4.291532e-12
1.3115167e-11
4.7514365e-12
-9.5878986e-12
-4.7514365e-12
9.5878963e-12
4.5275797e-12
-6.1013538e-12
-4.5275797e-12
6.1013527e-12
3.7930913e-12
-3.3628847e-12
-3.7930913e-12
3.3628847e-12
2.8788154e-12
-1.5104404e-12
-2.8788154e-12
1.5104404e-12
1.8650487e-11
-3.9316275e-13
-2.007086e-12
1.7036564e-11
1.2878502e-12
1.9296759e-13
-1.2878502e-12
-1.9296759e-13
7.5051047e-13
4.4415147e-13
-7.5051047e-13
-4.4415176e-13
1.7024119e-11
5.0477639e-13
-3.8071792e-13
-5.0477639e-13
1.4550292e-13
4.6996139e-13
-1.4550292e-13
-4.6996125e-13
9.0208401e-15
3.9733004e-13
-9.0208401e-15
-3.9733004e-13
-5.9912973e-14
3.1665216e-13
5.99129e-14
-3.1665216e-13
-8.6644633e-14
2.4284876e-13
8.6644633e-14
-1.9071889e-12
-8.9221667e-14
1.7856589e-13
8.922163e-14
-1.7856589e-13
-7.9176158e-14
1.2596425e-13
2.4561017e-13
-2.9239826e-13
-6.4181816e-14
8.5300122e-14
6.4181816e-14
-8.530014e-14
-4.85396e-14
5.5346565e-14
4.8539564e-14
-5.5346565e-14
-3.4528699e-14
3.3965697e-14
3.4528772e-14
-3.3965552e-14
-2.2564904e-14
1.9043331e-14
2.2564831e-14
-1.9043258e-14
-1.360632e-14
8.9786481e-15
1.360632e-14
-8.9786481e-15
-6.9929548e-15
2.4656457e-15
6.9929548e-15
-2.4653547e-15
-2.3322632e-15
-1.467948e-15
2.3322632e-15
1.467948e-15
7.2981124e-16
-3.6463981e-15
-7.2952023e-16
3.6466891e-15
2.5586237e-15
-4.6543455e-15
-2.5586237e-15
4.6546365e-15
3.5070987e-15
-4.9597703e-15
-3.5070987e-15
4.9597703e-15
3.8837141e-15
-4.8164162e-15
-3.8842962e-15
4.8169982e-15
3.8736214e-15
-4.4325955e-15
-3.8736214e-15
4.4325955e-15
3.6291101e-15
-3.9420712e-15
-3.6296921e-15
3.9420712e-15
3.260921e-15
-3.4212775e-15
-3.2615031e-15
3.4218595e-15
2.8428477e-15
-2.9163542e-15
-2.8428477e-15
2.9163542e-15
2.4220426e-15
-2.4485632e-15
-2.4220426e-15
2.4485632e-15
2.0262136e-15
-2.0297009e-15
-2.0262136e-15
2.0297009e-15
1.670219e-15
-1.6616504e-15
-1.670219e-15
1.6639785e-15
1.3628928e-15
-1.3467073e-15
-1.3628928e-15
1.3467073e-15
1.1003469e-15
-1.0786131e-15
-1.0980189e-15
1.0786131e-15
8.8079715e-16
-8.519055e-16
-8.7846908e-16
8.5423357e-16
7.0010818e-16
-6.6839984e-16
-7.0010818e-16
6.6839984e-16
5.5333237e-16
-5.1595968e-16
-5.5333237e-16
5.1595968e-16
4.349047e-16
-3.9229909e-16
-4.349047e-16
3.9229909e-16
3.4051396e-16
-2.9247466e-16
-3.4051396e-16
2.9247466e-16
2.7023089e-16
-2.1284682e-16
-2.6557475e-16
2.1284682e-16
2.0565587e-16
-1.5118824e-16
-2.0565587e-16
1.5118824e-16
1.581566e-16
-1.0405639e-16
-1.581566e-16
1.0405639e-16
1.2141622e-16
-5.9113146e-17
-1.2141622e-16
6.8425417e-17
1.02295e-16
-4.248398e-17
-9.2982733e-17
4.248398e-17
7.1345124e-17
-2.3681863e-17
-7.1345124e-17
2.3681863e-17
5.514231e-17
-9.7766419e-18
-5.514231e-17
9.7766419e-18
4.4394504e-17
1.6440385e-18
-4.4394504e-17
-1.6440385e-18
3.6767162e-17
9.0007931e-18
-3.6767162e-17
-9.0007931e-18
3.0901711e-17
1.2166884e-17
-3.0901711e-17
-1.2166884e-17
2.4480583e-17
1.4202889e-17
-2.4480583e-17
-1.4202889e-17
3.6496932e-17
1.5206229e-17
-1.7872388e-17
-1.5206229e-17
1.1961923e-17
1.6219837e-17
-1.1961923e-17
-1.6219837e-17
7.9573431e-18
1.810307e-17
-7.9573431e-18
-3.6727614e-17
3.8787406e-18
3.8994493e-17
-3.8787406e-18
-3.8994493e-17
5.4040792e-19
2.0700848e-17
1.8084136e-17
-2.0700848e-17
-1.0178111e-18
2.0721397e-17
1.0178111e-18
-2.0721397e-17
-1.6907645e-18
3.643966e-17
1.6907645e-18
-1.7815116e-17
-1.0111915e-18
2.6851548e-17
1.0111915e-18
-8.2270039e-18
-5.9939521e-12
-2.7428731e-10
5.9939544e-12
2.7428731e-10
-5.619031e-12
-3.1065879e-10
5.619031e-12
3.1065879e-10
-3.7086728e-12
-3.3940815e-10
3.7086716e-12
3.3940815e-10
-1.331455e-12
-3.1749092e-10
1.331455e-12
3.1749092e-10
3.4854661e-13
-1.1860459e-10
-3.4854661e-13
2.8503861e-10
1.3302477e-12
-1.7113591e-10
-1.3302477e-12
1.7113591e-10
1.7895341e-12
-1.3028422e-10
-1.7895341e-12
1.1364082e-10
1.8928497e-12
-9.5764294e-11
-1.8928494e-12
7.9120893e-11
1.7782311e-12
-6.6123101e-11
-1.7782311e-12
6.6123101e-11
1.5482295e-12
-4.0062996e-11
-1.5482295e-12
4.0062996e-11
1.7919609e-11
-3.3261385e-11
-1.2762075e-12
3.3261385e-11
1.00679e-12
-1.1718115e-11
-1.00679e-12
2.8361516e-11
7.6432774e-13
-2.4841151e-11
-7.6432767e-13
8.197749e-12
5.587546e-13
-1.2341895e-11
-2.2230947e-12
1.2341895e-11
3.9194545e-13
-8.8927474e-12
-3.9194541e-13
7.2284072e-12
4.2803849e-13
-5.3245114e-12
-5.9447251e-13
5.3245114e-12
1.629835e-13
-3.473776e-12
-1.629835e-13
3.473776e-12
9.058138e-14
-1.2252342e-12
-9.0581343e-14
2.8895744e-12
4.0410589e-14
-8.2630102e-13
-4.0410589e-14
8.2630095e-13
1.9710314e-14
-5.5492298e-13
-1.9710314e-14
5.5492298e-13
1.5976284e-14
-3.7114264e-13
-1.5976284e-14
3.7114264e-13
1.6321318e-14
-2.4720211e-13
-1.6321318e-14
2.4720211e-13
1.7072485e-14
-1.6394816e-13
-1.7072485e-14
1.6394816e-13
1.743249e-14
-1.0829127e-13
-1.7432781e-14
1.0829127e-13
1.4921741e-14
-7.1145998e-14
-1.4921741e-14
7.1145998e-14
1.1924465e-14
-4.6522867e-14
-1.1924465e-14
4.6523158e-14
8.0064414e-15
-3.0219507e-14
-8.0058594e-15
3.0218925e-14
4.9362115e-15
-1.9460587e-14
-4.9362115e-15
1.9460587e-14
2.8380262e-15
-1.2403207e-14
-2.8374441e-15
1.2403207e-14
1.4854236e-15
-7.8026546e-15
-1.4848416e-15
7.8026546e-15
6.7154294e-16
-4.8272522e-15
-6.7154294e-16
4.8272522e-15
2.2441963e-16
-2.9196021e-15
-2.2441963e-16
2.9196021e-15
1.9782347e-17
-1.713092e-15
-1.9782347e-17
1.713092e-15
-5.4971491e-17
-9.6411962e-16
5.4971491e-17
9.6295559e-16
-1.923195e-16
-5.0699462e-16
1.923195e-16
5.0699462e-16
-2.6801369e-16
-2.3837695e-16
2.6801369e-16
2.3837695e-16
-2.870554e-16
-8.6852093e-17
2.870554e-16
8.6852093e-17
-2.7188062e-16
-1.0271631e-17
2.7188062e-16
7.9435627e-18
-2.4100361e-16
2.7504885e-17
2.4100361e-16
-2.7504885e-17
-2.0550507e-16
3.8254692e-17
2.0550507e-16
-3.8254692e-17
-1.7039897e-16
3.5944588e-17
1.7039897e-16
-3.5944588e-17
-1.3855016e-16
2.7709766e-17
1.3855016e-16
-2.7709766e-17
-1.1153126e-16
1.7420981e-17
1.1153126e-16
-1.7420981e-17
-8.8541564e-17
8.264797e-18
8.8541564e-17
-8.264797e-18
-6.8849108e-17
3.6217706e-19
6.8849108e-17
-3.6217706e-19
-5.3090637e-17
-6.082148e-18
5.3090637e-17
6.082148e-18
-4.0573667e-17
-1.0874266e-17
4.0573667e-17
1.0874266e-17
-2.9951232e-17
-1.3107594e-17
2.9951232e-17
1.3107594e-17
-2.208606e-17
-1.297438e-17
2.208606e-17
1.297438e-17
-1.5452549e-17
-1.1814651e-17
1.5452549e-17
1.1814651e-17
-1.0856208e-17
-9.7892327e-18
1.0856208e-17
9.7892327e-18
-7.2657818e-18
-6.4997476e-18
7.2657818e-18
6.4997476e-18
-5.9195453e-18
-5.0777587e-18
5.9195453e-18
5.0777587e-18
-5.2990793e-18
-4.5595264e-18
5.2990793e-18
4.5595264e-18
-5.1749977e-18
-4.245324e-18
5.1749977e-18
4.245324e-18
-2.5260955e-18
-4.7699023e-18
2.5260955e-18
4.7699023e-18
-4.9744131e-19
-4.2940359e-18
-1.8127102e-17
4.2940359e-18
1.9664851e-17
-4.5605467e-18
-1.0403075e-18
-1.4063997e-17
1.8829547e-18
-4.311137e-18
-1.8829547e-18
4.311137e-18
-2.6372085e-19
-1.938883e-18
2.6372085e-19
1.938883e-18
-3.4594254e-12
1.5217316e-11
3.459423e-12
-1.5217316e-11
-4.291532e-12
1.3115167e-11
4.291532e-12
-1.3115167e-11
-4.7514376e-12
9.5878974e-12
4.7514376e-12
-9.5878974e-12
-4.5275797e-12
6.1013538e-12
4.5275797e-12
-6.1013538e-12
-3.7930913e-12
3.3628847e-12
3.7930913e-12
-3.3628847e-12
-2.8788154e-12
1.510441e-12
2.8788154e-12
-1.5104404e-12
-1.8650487e-11
3.9316275e-13
2.007086e-12
-1.7036564e-11
-1.2878502e-12
-1.9296759e-13
1.2878502e-12
1.9296759e-13
-7.5051047e-13
-4.4415147e-13
7.5051047e-13
4.4415147e-13
-1.7024119e-11
-5.0477639e-13
3.8071792e-13
5.0477639e-13
-1.4550292e-13
-4.6996139e-13
1.4550292e-13
4.6996139e-13
-9.0208401e-15
-3.9733004e-13
9.0208401e-15
3.9733004e-13
5.99129e-14
-3.1665216e-13
-5.99129e-14
3.1665216e-13
8.6644633e-14
-2.4284876e-13
-8.6644633e-14
1.9071889e-12
8.922163e-14
-1.7856589e-13
-8.922163e-14
1.7856585e-13
7.9176156e-14
-1.2596425e-13
-2.4561017e-13
2.9239826e-13
6.4181816e-14
-8.5300122e-14
-6.4181816e-14
8.5300122e-14
4.85396e-14
-5.5346565e-14
-4.85396e-14
5.5346529e-14
3.4528772e-14
-3.3965625e-14
-3.4528772e-14
3.3965552e-14
2.2564831e-14
-1.9043331e-14
-2.2564831e-14
1.9043258e-14
1.360632e-14
-8.9785026e-15
-1.360632e-14
8.9783571e-15
6.9929548e-15
-2.4655002e-15
-6.9929548e-15
2.4653547e-15
2.3322632e-15
1.467948e-15
-2.3322632e-15
-1.467948e-15
-7.2952023e-16
3.6466891e-15
7.2952023e-16
-3.6466891e-15
-2.5586237e-15
4.6543455e-15
2.5586237e-15
-4.6546365e-15
-3.5070987e-15
4.9597703e-15
3.5070987e-15
-4.9600613e-15
-3.8842962e-15
4.8175802e-15
3.8842962e-15
-4.8169982e-15
-3.8736215e-15
4.4325955e-15
3.8736215e-15
-4.4325955e-15
-3.6291101e-15
3.9420712e-15
3.6291101e-15
-3.9420712e-15
-3.260921e-15
3.4218595e-15
3.260921e-15
-3.4218595e-15
-2.8428477e-15
2.9163542e-15
2.8428477e-15
-2.9163542e-15
-2.4220426e-15
2.4485632e-15
2.4220426e-15
-2.4485632e-15
-2.0262136e-15
2.0297009e-15
2.0262136e-15
-2.0297009e-15
-1.670219e-15
1.6628144e-15
1.670219e-15
-1.6639785e-15
-1.3628928e-15
1.3467073e-15
1.3628928e-15
-1.3467073e-15
-1.1003469e-15
1.0786131e-15
1.1003469e-15
-1.0786131e-15
-8.8079715e-16
8.5423357e-16
8.8079715e-16
-8.5423357e-16
-7.0010818e-16
6.707279e-16
7.0010818e-16
-6.6839984e-16
-5.5333237e-16
5.1595968e-16
5.5333237e-16
-5.1595968e-16
-4.3490471e-16
3.9229909e-16
4.3490471e-16
-3.9229909e-16
-3.4051396e-16
2.9247464e-16
3.4051396e-16
-2.9247464e-16
-2.6557475e-16
2.1284682e-16
2.6557475e-16
-2.1284682e-16
-2.0565587e-16
1.5118824e-16
2.0565587e-16
-1.5118824e-16
-1.581566e-16
1.0405639e-16
1.581566e-16
-1.0405639e-16
-1.2141622e-16
6.8425417e-17
1.2141622e-16
-6.8425417e-17
-9.2982731e-17
4.248398e-17
9.2982731e-17
-4.248398e-17
-7.1345123e-17
2.3681864e-17
7.1345123e-17
-2.3681864e-17
-5.5142309e-17
9.7766419e-18
5.5142309e-17
-9.7766419e-18
-4.4394503e-17
-1.6440369e-18
4.4394503e-17
1.6440369e-18
-3.676716e-17
-9.0007948e-18
3.676716e-17
9.0007948e-18
-3.090171e-17
-1.2166882e-17
3.090171e-17
1.2166882e-17
-2.4480581e-17
-1.4202889e-17
2.4480581e-17
1.4202889e-17
-1.7872388e-17
-1.5206229e-17
1.7872388e-17
1.5206229e-17
-1.1961921e-17
-1.6219837e-17
1.1961921e-17
1.6219837e-17
-7.9573406e-18
-1.810307e-17
7.9573406e-18
3.6727614e-17
-3.8787396e-18
-2.036995e-17
3.8787396e-18
3.8994493e-17
-5.4040792e-19
-2.0763045e-18
5.4040792e-19
2.0700848e-17
1.0178124e-18
-2.0721398e-17
-1.0178124e-18
3.9345941e-17
1.6907655e-18
-1.7815117e-17
-1.6907655e-18
1.7815117e-17
1.0111917e-18
-8.2270039e-18
-1.0111917e-18
8.2270039e-18
5.9939544e-12
2.7428731e-10
-5.9939544e-12
-2.7428731e-10
5.6190309e-12
3.1065879e-10
-5.6190321e-12
-3.1065879e-10
3.7086728e-12
3.3940815e-10
-3.7086728e-12
-3.3940815e-10
1.331455e-12
3.1749092e-10
-1.331455e-12
-3.1749092e-10
-3.485472e-13
1.1860459e-10
3.4854661e-13
-2.8503861e-10
-1.3302477e-12
1.7113591e-10
1.3302477e-12
-1.7113591e-10
-1.7895341e-12
1.3028422e-10
1.7895341e-12
-1.1364082e-10
-1.89285e-12
9.5764294e-11
1.8928494e-12
-7.9120893e-11
-1.7782311e-12
6.6123101e-11
1.7782311e-12
-6.6123101e-11
-1.5482295e-12
4.0062996e-11
1.5482295e-12
-4.0062997e-11
-1.7919609e-11
3.3261385e-11
1.2762075e-12
-3.3261386e-11
-1.00679e-12
1.1718115e-11
1.00679e-12
-2.8361516e-11
-7.6432774e-13
2.4841151e-11
7.6432767e-13
-8.1977491e-12
-5.587546e-13
1.2341895e-11
2.2230947e-12
-1.2341895e-11
-3.9194545e-13
8.8927473e-12
3.9194541e-13
-7.2284072e-12
-4.2803849e-13
5.3245114e-12
5.9447251e-13
-5.3245114e-12
-1.6298349e-13
3.473776e-12
1.629835e-13
-3.473776e-12
-9.0581343e-14
1.2252342e-12
9.058138e-14
-2.8895744e-12
-4.0410589e-14
8.2630095e-13
4.0410589e-14
-8.2630087e-13
-1.9710242e-14
5.5492305e-13
1.9710314e-14
-5.5492298e-13
-1.5976139e-14
3.7114249e-13
1.5976284e-14
-3.7114235e-13
-1.6321173e-14
2.4720211e-13
1.6321318e-14
-2.4720211e-13
-1.7072485e-14
1.6394816e-13
1.7072485e-14
-1.6394816e-13
-1.7432781e-14
1.0829127e-13
1.7432781e-14
-1.0829098e-13
-1.4921741e-14
7.1145998e-14
1.4921741e-14
-7.1145707e-14
-1.1924465e-14
4.6522867e-14
1.1924465e-14
-4.6522867e-14
-8.0058594e-15
3.0218925e-14
8.0058594e-15
-3.0218925e-14
-4.9356295e-15
1.9460587e-14
4.9362115e-15
-1.9460005e-14
-2.8374441e-15
1.2403207e-14
2.8380262e-15
-1.2403207e-14
-1.4854236e-15
7.8026546e-15
1.4854236e-15
-7.8020726e-15
-6.7154294e-16
4.8272522e-15
6.7154294e-16
-4.8272522e-15
-2.2325559e-16
2.9196021e-15
2.2441963e-16
-2.9196021e-15
-1.8618313e-17
1.713092e-15
1.9782347e-17
-1.713092e-15
5.4971491e-17
9.6295559e-16
-5.3807457e-17
-9.6179155e-16
1.923195e-16
5.0699462e-16
-1.923195e-16
-5.0466656e-16
2.6801369e-16
2.3837678e-16
-2.6801369e-16
-2.3837678e-16
2.870554e-16
8.6852093e-17
-2.870554e-16
-8.6852093e-17
2.7420868e-16
7.9437291e-18
-2.7188062e-16
-5.6156611e-18
2.4100361e-16
-2.7504885e-17
-2.4100361e-16
2.7504885e-17
2.0550523e-16
-3.8254692e-17
-2.0550523e-16
4.2910828e-17
1.7505511e-16
-3.5944588e-17
-1.7039897e-16
3.5944588e-17
1.3855016e-16
-2.7709766e-17
-1.3855016e-16
2.7709766e-17
1.1153126e-16
-1.7420981e-17
-1.1153126e-16
2.2077117e-17
8.8541564e-17
-8.264797e-18
-8.8541564e-17
1.2920933e-17
6.8849108e-17
-3.6217706e-19
-6.8849108e-17
3.6217706e-19
5.3090637e-17
6.082148e-18
-5.3090637e-17
3.2301238e-18
4.0573667e-17
1.0874249e-17
-4.0573667e-17
-1.0874249e-17
2.9951232e-17
1.3107594e-17
-2.9951232e-17
-1.3107594e-17
2.208606e-17
1.297438e-17
-1.2773788e-17
-1.297438e-17
2.4764821e-17
1.1814651e-17
-1.5452549e-17
-1.1814651e-17
1.0856208e-17
9.7892327e-18
-1.0856208e-17
-9.7892327e-18
7.2657851e-18
6.4997476e-18
-7.2657851e-18
-6.4997476e-18
5.9195486e-18
5.0777587e-18
-5.9195486e-18
1.3546785e-17
2.3923621e-17
4.5595247e-18
1.3325466e-17
-4.5595247e-18
2.3799541e-17
4.245324e-18
-5.1749977e-18
-4.245324e-18
2.5260955e-18
4.7699023e-18
1.6098448e-17
-4.7699023e-18
4.9744298e-19
-1.4330509e-17
1.8127101e-17
-4.2940342e-18
-1.9664853e-17
4.5605483e-18
1.0403091e-18
-4.5605483e-18
-1.8829542e-18
4.311137e-18
1.8829542e-18
-4.311137e-18
2.6372119e-19
1.9388847e-18
-2.6372119e-19
-1.9388847e-18
)
;

boundaryField
{
    movingWall
    {
        type            calculated;
        value           nonuniform List<scalar> 
16
(
-1.0111915e-18
-2.6372085e-19
1.0111917e-18
2.6372119e-19
2.6851548e-17
-1.938883e-18
-8.2270039e-18
1.9388847e-18
1.0111915e-18
2.6372085e-19
-1.0111917e-18
-2.6372119e-19
-8.2270039e-18
1.938883e-18
8.2270039e-18
-1.9388847e-18
)
;
    }
    CPLReceiveMD
    {
        type            calculated;
        value           nonuniform List<scalar> 
16
(
3.4594207e-12
-5.9939521e-12
-3.4594254e-12
5.9939544e-12
-1.5217316e-11
-2.7428731e-10
1.5217316e-11
2.7428731e-10
-3.459423e-12
5.9939544e-12
3.459423e-12
-5.9939544e-12
1.5217316e-11
2.7428731e-10
-1.5217316e-11
-2.7428731e-10
)
;
    }
    streamwiseIn
    {
        type            cyclic;
    }
    streamwiseOut
    {
        type            cyclic;
    }
    front
    {
        type            cyclic;
    }
    back
    {
        type            cyclic;
    }
}


// ************************************************************************* //
