/*--------------------------------*- C++ -*----------------------------------*\
| =========                 |                                                 |
| \\      /  F ield         | OpenFOAM: The Open Source CFD Toolbox           |
|  \\    /   O peration     | Version:  3.0.x                                 |
|   \\  /    A nd           | Web:      www.OpenFOAM.org                      |
|    \\/     M anipulation  |                                                 |
\*---------------------------------------------------------------------------*/
FoamFile
{
    version     2.0;
    format      ascii;
    class       volVectorField;
    location    "150";
    object      U;
}
// * * * * * * * * * * * * * * * * * * * * * * * * * * * * * * * * * * * * * //

dimensions      [0 1 -1 0 0 0 0];

internalField   nonuniform List<vector> 
960
(
(-0.032858228 3.1739159e-09 2.2228699e-12)
(-0.032858235 2.2263915e-10 -5.4663393e-11)
(-0.032858236 -5.5528776e-10 -8.9208655e-11)
(-0.032858228 -5.8548599e-11 -7.5448946e-11)
(-0.024960862 6.9627249e-09 -1.5943786e-11)
(-0.024960868 7.7400188e-10 -3.8563289e-11)
(-0.024960868 -1.1116467e-09 -9.4744789e-11)
(-0.024960863 -2.9873166e-10 -6.4348475e-11)
(-0.0213911 7.1192762e-09 -3.3609351e-11)
(-0.021391129 2.6779666e-09 -2.8213577e-11)
(-0.02139113 -2.4194579e-09 -9.1217151e-11)
(-0.021391097 -2.1266932e-09 -5.6762054e-11)
(-0.017087925 1.0403571e-08 -4.6600646e-11)
(-0.017087964 6.7729427e-09 -2.0334312e-11)
(-0.017087964 -6.5594652e-09 -8.3259942e-11)
(-0.017087923 -6.1625251e-09 -4.7537764e-11)
(-0.012992644 1.511352e-08 -5.1741184e-11)
(-0.012992691 1.1948185e-08 -1.3659477e-11)
(-0.012992691 -1.2137381e-08 -7.1946697e-11)
(-0.012992642 -1.130643e-08 -3.6449838e-11)
(-0.0097056256 2.0831586e-08 -5.0146927e-11)
(-0.009705671 1.784534e-08 -8.2201664e-12)
(-0.0097056718 -1.8433764e-08 -5.9222238e-11)
(-0.0097056257 -1.7190553e-08 -2.5517204e-11)
(-0.0072781831 2.5401776e-08 -4.4358139e-11)
(-0.0072782148 2.2783712e-08 -4.0481925e-12)
(-0.0072782155 -2.3409115e-08 -4.6720413e-11)
(-0.0072781853 -2.2055074e-08 -1.6107542e-11)
(-0.0055398086 2.761575e-08 -3.6710205e-11)
(-0.0055398225 2.5551969e-08 -1.0771066e-12)
(-0.0055398231 -2.5862249e-08 -3.5550781e-11)
(-0.0055398118 -2.4681776e-08 -8.815009e-12)
(-0.0042867059 2.7607213e-08 -2.8827631e-11)
(-0.0042867047 2.6123096e-08 8.5609338e-13)
(-0.0042867052 -2.5962421e-08 -2.6158997e-11)
(-0.0042867091 -2.5068655e-08 -3.6532641e-12)
(-0.0033512585 2.6087829e-08 -2.1664357e-11)
(-0.0033512475 2.510415e-08 1.966088e-12)
(-0.0033512478 -2.4466964e-08 -1.8631465e-11)
(-0.0033512611 -2.3851514e-08 -3.2141267e-13)
(-0.0026150194 2.3824968e-08 -1.5659009e-11)
(-0.0026150039 2.3227331e-08 2.4708511e-12)
(-0.0026150042 -2.2178111e-08 -1.2835299e-11)
(-0.0026150213 -2.1783997e-08 1.5966132e-12)
(-0.0020011782 2.1419896e-08 -1.0915724e-11)
(-0.0020011624 2.110142e-08 2.5653436e-12)
(-0.0020011626 -1.9720379e-08 -8.5284113e-12)
(-0.0020011796 -1.9487509e-08 2.5111429e-12)
(-0.0014624005 1.9258152e-08 -7.3298345e-12)
(-0.0014623867 1.9138393e-08 2.4131623e-12)
(-0.0014623869 -1.7494444e-08 -5.4272657e-12)
(-0.0014624014 -1.737964e-08 2.7731422e-12)
(-0.0009698692 1.7538564e-08 -4.7232533e-12)
(-0.00096985876 1.7567374e-08 2.129197e-12)
(-0.00096985892 -1.5708749e-08 -3.2641239e-12)
(-0.00096986992 -1.5690544e-08 2.6497915e-12)
(-0.00050506484 1.6326519e-08 -2.8757042e-12)
(-0.00050505809 1.6480722e-08 1.7936079e-12)
(-0.00050505828 -1.4434607e-08 -1.8028112e-12)
(-0.00050506548 -1.4511051e-08 2.329686e-12)
(-5.4205175e-05 1.5605357e-08 -1.6076056e-12)
(-5.4201926e-05 1.5883272e-08 1.4575859e-12)
(-5.4202161e-05 -1.3658924e-08 -8.5076362e-13)
(-5.4205851e-05 -1.3843396e-08 1.9333069e-12)
(0.0003952207 1.5316285e-08 -7.6937932e-13)
(0.0003952209 1.5732632e-08 1.1493982e-12)
(0.00039522058 -1.3324894e-08 -2.5686316e-13)
(0.00039521991 -1.3642335e-08 1.5350274e-12)
(0.00085644417 1.5385233e-08 -2.4004335e-13)
(0.00085644185 1.5967472e-08 8.8277919e-13)
(0.00085644143 -1.3359414e-08 9.2500242e-14)
(0.00085644321 -1.3843855e-08 1.1744239e-12)
(0.0013444584 1.5738693e-08 7.5392457e-14)
(0.001344454 1.652492e-08 6.6170202e-13)
(0.0013444535 -1.3689245e-08 2.7947108e-13)
(0.0013444572 -1.4382643e-08 8.6916425e-13)
(0.0018765003 1.6311339e-08 2.4768708e-13)
(0.0018764945 1.7349497e-08 4.84732e-13)
(0.0018764937 -1.4248843e-08 3.6210635e-13)
(0.0018764989 -1.520106e-08 6.2031024e-13)
(0.002472243 1.7048174e-08 3.2754495e-13)
(0.002472236 1.8396247e-08 3.4720655e-13)
(0.002472235 -1.498272e-08 3.8149127e-13)
(0.0024722413 -1.6252798e-08 4.2895859e-13)
(0.0031538669 1.7903537e-08 3.5008167e-13)
(0.0031538591 1.9630339e-08 2.4300431e-13)
(0.0031538579 -1.5844527e-08 3.6489535e-13)
(0.0031538649 -1.7501874e-08 2.8502069e-13)
(0.0039461101 1.8838569e-08 3.3909764e-13)
(0.0039461016 2.1024744e-08 1.6584169e-13)
(0.0039461001 -1.679458e-08 3.3027764e-13)
(0.0039461077 -1.8919859e-08 1.7985483e-13)
(0.0048763417 1.9818205e-08 3.1026636e-13)
(0.0048763329 2.2557216e-08 1.0977601e-13)
(0.004876331 -1.7796955e-08 2.8835564e-13)
(0.0048763389 -2.0483329e-08 1.0539277e-13)
(0.0059746761 2.0808381e-08 2.7354959e-13)
(0.0059746673 2.4207247e-08 6.972282e-14)
(0.0059746649 -1.8816742e-08 2.4558448e-13)
(0.0059746729 -2.2170772e-08 5.4349618e-14)
(0.00727412 2.1773832e-08 2.3502402e-13)
(0.0072741114 2.5953351e-08 4.1750648e-14)
(0.0072741085 -1.9817852e-08 2.052238e-13)
(0.0072741164 -2.3959814e-08 2.0678641e-14)
(0.008810736 2.2676633e-08 1.9814845e-13)
(0.008810728 2.7770762e-08 2.2895917e-14)
(0.0088107245 -2.0761571e-08 1.6920606e-13)
(0.008810732 -2.5825013e-08 -4.4243825e-16)
(0.010623801 2.3475526e-08 1.6468757e-13)
(0.010623793 2.9629943e-08 1.050715e-14)
(0.010623789 -2.1605889e-08 1.3805482e-13)
(0.010623796 -2.7736225e-08 -1.2767067e-14)
(0.012755931 2.4126005e-08 1.3534498e-13)
(0.012755925 3.1495586e-08 2.6926663e-15)
(0.01275592 -2.2305597e-08 1.1165949e-13)
(0.012755926 -2.9657511e-08 -1.9112432e-14)
(0.015253159 2.4581079e-08 1.1020585e-13)
(0.015253155 3.332588e-08 -1.9448678e-15)
(0.015253149 -2.2813061e-08 8.9645993e-14)
(0.015253154 -3.1546525e-08 -2.1537744e-14)
(0.01816493 2.4792649e-08 8.9026973e-14)
(0.018164929 3.5072348e-08 -4.4321045e-15)
(0.018164922 -2.3079602e-08 7.1504388e-14)
(0.018164925 -3.335432e-08 -2.1513034e-14)
(0.021544007 2.4713395e-08 7.14097e-14)
(0.021544008 3.6680046e-08 -5.5088632e-15)
(0.021544001 -2.3057383e-08 5.6697784e-14)
(0.021544002 -3.5025533e-08 -2.0061433e-14)
(0.025446264 2.4299088e-08 5.690143e-14)
(0.025446269 3.8088106e-08 -5.6997924e-15)
(0.02544626 -2.2701722e-08 4.4706201e-14)
(0.025446259 -3.6498917e-08 -1.7874068e-14)
(0.029930362 2.3511219e-08 4.5053496e-14)
(0.02993037 3.9230644e-08 -5.3679434e-15)
(0.029930361 -2.1973714e-08 3.5062663e-14)
(0.029930357 -3.7708247e-08 -1.5403266e-14)
(0.035057287 2.2319825e-08 3.544886e-14)
(0.0350573 4.0038036e-08 -4.7420322e-15)
(0.035057289 -2.0843059e-08 2.7357321e-14)
(0.035057284 -3.8583591e-08 -1.293082e-14)
(0.040889761 2.0706377e-08 2.7715445e-14)
(0.040889779 4.0438665e-08 -4.0112456e-15)
(0.040889768 -1.9290937e-08 2.123472e-14)
(0.040889759 -3.9053031e-08 -1.0622556e-14)
(0.047491508 1.8666562e-08 2.152787e-14)
(0.047491532 4.0361116e-08 -3.2709603e-15)
(0.047491519 -1.7312789e-08 1.6395304e-14)
(0.047491508 -3.904485e-08 -8.5631306e-15)
(0.054926391 1.6212775e-08 1.6605997e-14)
(0.054926421 3.9736876e-08 -2.5793164e-15)
(0.054926407 -1.49208e-08 1.2589992e-14)
(0.054926393 -3.849025e-08 -6.7858374e-15)
(0.063257417 1.3376094e-08 1.2713201e-14)
(0.063257454 3.8503625e-08 -1.966216e-15)
(0.063257439 -1.2145863e-08 9.6131155e-15)
(0.063257423 -3.7326623e-08 -5.2908511e-15)
(0.072545637 1.0207518e-08 9.65324e-15)
(0.07254568 3.660907e-08 -1.4452205e-15)
(0.072545665 -9.0388207e-09 7.2961552e-15)
(0.072545647 -3.5501377e-08 -4.0582963e-15)
(0.082848936 6.7782362e-09 7.2612343e-15)
(0.082848986 3.4015292e-08 -1.0157416e-15)
(0.08284897 -5.6707126e-09 5.5039333e-15)
(0.082848951 -3.2976281e-08 -3.0616813e-15)
(0.094220759 3.1787014e-09 5.4035259e-15)
(0.094220815 3.0703506e-08 -6.7211337e-16)
(0.094220799 -2.1318506e-09 4.1246598e-15)
(0.09422078 -2.9732226e-08 -2.2677893e-15)
(0.10670878 -4.8366349e-10 3.9742539e-15)
(0.10670884 2.6679098e-08 -4.0678068e-16)
(0.10670883 1.4704835e-09 3.0658564e-15)
(0.10670881 -2.5774254e-08 -1.6424408e-15)
(0.12035356 -4.08823e-09 2.883206e-15)
(0.12035362 2.197669e-08 -2.079508e-16)
(0.12035361 5.0158059e-09 2.2579949e-15)
(0.12035359 -2.1136631e-08 -1.1582169e-15)
(0.1351872 -7.5064136e-09 2.0569531e-15)
(0.13518727 1.6664964e-08 -6.1195684e-17)
(0.13518726 8.3756816e-09 1.6458267e-15)
(0.13518724 -1.5887674e-08 -7.9071133e-16)
(0.15123211 -1.0608286e-08 1.4399432e-15)
(0.15123218 1.0850872e-08 4.156518e-17)
(0.15123217 1.1420333e-08 1.184683e-15)
(0.15123216 -1.0133977e-08 -5.1711108e-16)
(0.16849976 -1.3270271e-08 9.8316151e-16)
(0.16849984 4.6828335e-09 1.1057206e-16)
(0.16849982 1.4026323e-08 8.4087171e-16)
(0.16849982 -4.0236253e-09 -3.1809707e-16)
(0.1869897 -1.5383487e-08 6.4748093e-16)
(0.18698978 -1.6475716e-09 1.5378475e-16)
(0.18698976 1.6084863e-08 5.8873908e-16)
(0.18698976 2.2520744e-09 -1.775316e-16)
(0.20668861 -1.6862086e-08 4.0044741e-16)
(0.20668869 -7.9059396e-09 1.8066301e-16)
(0.20668867 1.7510114e-08 4.1032543e-16)
(0.20668868 8.4588777e-09 -8.6076356e-17)
(0.2275697 -1.7650826e-08 2.2484822e-16)
(0.22756978 -1.3818063e-08 1.9538812e-16)
(0.22756976 1.8246676e-08 2.7892847e-16)
(0.22756977 1.4322543e-08 -2.5523226e-17)
(0.2495922 -1.7730924e-08 1.0687254e-16)
(0.24959227 -1.9076377e-08 1.9853156e-16)
(0.24959225 1.8275363e-08 1.7997589e-16)
(0.24959227 1.9535194e-08 1.2862118e-17)
(0.27270125 -1.7123247e-08 2.5122211e-17)
(0.27270131 -2.3350878e-08 1.8798991e-16)
(0.27270129 1.7616287e-08 1.1045867e-16)
(0.27270131 2.376615e-08 4.0901088e-17)
(0.29682797 -1.5888002e-08 -2.8703788e-17)
(0.29682803 -2.6306223e-08 1.6842419e-16)
(0.296828 1.6328468e-08 6.2661126e-17)
(0.29682804 2.6678964e-08 6.1039961e-17)
(0.32188992 -1.4120548e-08 -6.9087281e-17)
(0.32188997 -2.7628122e-08 1.4996554e-16)
(0.32188994 1.4505652e-08 2.8367781e-17)
(0.32188998 2.7957851e-08 7.8093673e-17)
(0.34779177 -1.1943311e-08 -1.0154711e-16)
(0.3477918 -2.7062518e-08 1.354396e-16)
(0.34779176 1.2268434e-08 7.223144e-18)
(0.34779181 2.7347113e-08 8.7628802e-17)
(0.37442631 -9.4934968e-09 -1.2876604e-16)
(0.37442633 -2.4465372e-08 1.2141296e-16)
(0.37442629 9.7525957e-09 -6.3754964e-18)
(0.37442634 2.4701451e-08 9.8107985e-17)
(0.40167577 -6.9084444e-09 -1.409463e-16)
(0.40167577 -1.9859363e-08 1.0629513e-16)
(0.40167573 7.0948136e-09 -1.6567593e-17)
(0.40167579 2.0043501e-08 1.0304815e-16)
(0.42941332 -4.3371352e-09 -1.4153578e-16)
(0.42941332 -1.3582829e-08 9.3587254e-17)
(0.42941328 4.4466638e-09 -1.7033606e-17)
(0.42941333 1.3713025e-08 9.9702657e-17)
(0.45750488 -2.0273106e-09 -1.1946737e-16)
(0.45750487 -6.7279809e-09 7.6214683e-17)
(0.45750484 2.0475583e-09 -1.2427253e-17)
(0.45750488 6.8112417e-09 8.6373451e-17)
(0.485811 -5.3486107e-10 -5.8598227e-17)
(0.48581099 -1.8184855e-09 4.6308257e-17)
(0.48581098 5.376831e-10 -9.1672022e-18)
(0.485811 1.8474715e-09 5.2383887e-17)
(-0.032858227 1.856339e-10 5.7976497e-10)
(-0.032858235 -2.2535944e-10 -3.067451e-11)
(-0.032858236 -2.2799677e-10 -6.8259395e-11)
(-0.032858225 -2.6890405e-11 5.3394889e-12)
(-0.024960863 6.4165311e-10 8.6708661e-10)
(-0.024960869 -3.5370521e-10 -4.1263989e-11)
(-0.024960868 -5.4090126e-10 5.2831455e-13)
(-0.024960863 -3.0283077e-10 -7.5026755e-12)
(-0.021391097 2.7288209e-09 1.1019147e-09)
(-0.021391127 1.7848896e-09 2.6114352e-11)
(-0.021391128 -2.3934609e-09 6.2619117e-11)
(-0.021391092 -2.4621788e-09 4.8397494e-11)
(-0.017087925 7.3048789e-09 9.9121393e-10)
(-0.017087964 6.3279737e-09 5.6190278e-11)
(-0.017087963 -6.9690085e-09 8.360558e-11)
(-0.017087922 -6.8183386e-09 6.4190175e-11)
(-0.012992644 1.2894867e-08 7.9924684e-10)
(-0.012992691 1.1724364e-08 6.1249576e-11)
(-0.012992691 -1.2661987e-08 8.6624521e-11)
(-0.012992641 -1.204648e-08 5.9155373e-11)
(-0.0097056273 1.9170566e-08 6.0982871e-10)
(-0.0097056732 1.7737907e-08 5.846515e-11)
(-0.0097056731 -1.8969284e-08 8.1577889e-11)
(-0.009705627 -1.7942458e-08 5.0472507e-11)
(-0.0072781864 2.4098765e-08 4.5615485e-10)
(-0.0072782182 2.2664886e-08 5.4284343e-11)
(-0.0072782182 -2.3843924e-08 7.3356806e-11)
(-0.0072781884 -2.2728973e-08 4.3532129e-11)
(-0.0055398124 2.6562409e-08 3.3973196e-10)
(-0.0055398261 2.5369405e-08 5.0001921e-11)
(-0.0055398262 -2.6178644e-08 6.4343001e-11)
(-0.0055398154 -2.5251747e-08 3.8628947e-11)
(-0.0042867093 2.6748984e-08 2.5279289e-10)
(-0.0042867078 2.5879696e-08 4.5562177e-11)
(-0.0042867079 -2.6185059e-08 5.5499701e-11)
(-0.0042867123 -2.5549477e-08 3.4877876e-11)
(-0.003351261 2.5394823e-08 1.8797487e-10)
(-0.0033512499 2.4823546e-08 4.0907362e-11)
(-0.00335125 -2.4626444e-08 4.7260877e-11)
(-0.0033512635 -2.4267038e-08 3.1605e-11)
(-0.0026150211 2.3274427e-08 1.396727e-10)
(-0.0026150056 2.2934605e-08 3.6156972e-11)
(-0.0026150057 -2.2298288e-08 3.9825418e-11)
(-0.0026150229 -2.2153343e-08 2.8489023e-11)
(-0.0020011794 2.0990221e-08 1.0367197e-10)
(-0.0020011635 2.0816052e-08 3.1480451e-11)
(-0.0020011636 -1.9816801e-08 3.3265e-11)
(-0.0020011806 -1.9822536e-08 2.5431267e-11)
(-0.0014624013 1.8928304e-08 7.6821612e-11)
(-0.0014623875 1.8873086e-08 2.703445e-11)
(-0.0014623876 -1.7576253e-08 2.7566362e-11)
(-0.0014624021 -1.7686533e-08 2.2442073e-11)
(-0.00096986974 1.7289037e-08 5.6833218e-11)
(-0.00096985934 1.7329134e-08 2.2929854e-11)
(-0.00096985942 -1.5780971e-08 2.2678335e-11)
(-0.00096987039 -1.5972172e-08 1.957264e-11)
(-0.00050506527 1.6139966e-08 4.1961432e-11)
(-0.00050505857 1.6272453e-08 1.9233503e-11)
(-0.00050505869 -1.4499922e-08 1.8530363e-11)
(-0.00050506586 -1.4768877e-08 1.6878543e-11)
(-5.4205574e-05 1.5467227e-08 3.1034102e-11)
(-5.420237e-05 1.5705233e-08 1.5976761e-11)
(-5.4202565e-05 -1.3718729e-08 1.5042376e-11)
(-5.4206212e-05 -1.4078509e-08 1.440494e-11)
(0.00039522027 1.5215081e-08 2.3007742e-11)
(0.00039522044 1.5583547e-08 1.3154801e-11)
(0.00039522014 -1.3379934e-08 1.2135951e-11)
(0.00039521951 -1.3855961e-08 1.2175533e-11)
(0.00085644368 1.5311863e-08 1.7096606e-11)
(0.00085644134 1.5845312e-08 1.0742219e-11)
(0.00085644093 -1.3410118e-08 9.7349245e-12)
(0.00085644275 -1.4037532e-08 1.0197971e-11)
(0.0013444578 1.5686076e-08 1.2731474e-11)
(0.0013444535 1.6427373e-08 8.7065687e-12)
(0.0013444529 -1.3735888e-08 7.766738e-12)
(0.0013444566 -1.4558207e-08 8.4637658e-12)
(0.0018764997 1.6274012e-08 9.4960638e-12)
(0.0018764938 1.727424e-08 7.0070994e-12)
(0.0018764931 -1.4291631e-08 6.1618717e-12)
(0.0018764983 -1.5360896e-08 6.8886722e-12)
(0.0024722422 1.7021967e-08 7.0912893e-12)
(0.0024722352 1.8341085e-08 5.6051576e-12)
(0.0024722342 -1.5021801e-08 4.8613215e-12)
(0.0024722406 -1.6398887e-08 5.5091659e-12)
(0.0031538661 1.7885281e-08 5.3008587e-12)
(0.0031538583 1.9593239e-08 4.4606461e-12)
(0.003153857 -1.5880012e-08 3.8155727e-12)
(0.0031538641 -1.7635429e-08 4.3625813e-12)
(0.0039461091 1.8825823e-08 3.9658012e-12)
(0.0039461007 2.1003871e-08 3.5351977e-12)
(0.0039460991 -1.6826575e-08 2.9807372e-12)
(0.0039461068 -1.9042127e-08 3.4326196e-12)
(0.0048763406 1.9809039e-08 2.9686997e-12)
(0.0048763319 2.2550942e-08 2.7920056e-12)
(0.0048763299 -1.7825532e-08 2.3180438e-12)
(0.0048763379 -2.0595541e-08 2.6872627e-12)
(0.0059746749 2.0801217e-08 2.2225066e-12)
(0.0059746661 2.4214028e-08 2.1843443e-12)
(0.0059746637 -1.884191e-08 1.7950339e-12)
(0.0059746718 -2.2274031e-08 2.0946887e-12)
(0.0072741187 2.1767327e-08 1.663559e-12)
(0.0072741101 2.5971677e-08 1.6983125e-12)
(0.0072741072 -1.983956e-08 1.3840316e-12)
(0.0072741152 -2.4055042e-08 1.6266657e-12)
(0.0088107346 2.26696e-08 1.2444822e-12)
(0.0088107266 2.7799367e-08 1.3071455e-12)
(0.008810723 -2.0779724e-08 1.0629152e-12)
(0.0088107307 -2.5912925e-08 1.2590397e-12)
(0.010623799 2.3466875e-08 9.3045496e-13)
(0.010623792 2.9667722e-08 1.0012574e-12)
(0.010623788 -2.1620378e-08 8.1352822e-13)
(0.010623795 -2.7817307e-08 9.7159873e-13)
(0.012755929 2.4114708e-08 6.9533267e-13)
(0.012755923 3.1541398e-08 7.6481717e-13)
(0.012755918 -2.2316316e-08 6.208094e-13)
(0.012755924 -2.9732011e-08 7.4776521e-13)
(0.015253157 2.4566154e-08 5.1944608e-13)
(0.015253153 3.3378562e-08 5.8301303e-13)
(0.015253147 -2.2819924e-08 4.7256471e-13)
(0.015253152 -3.1614457e-08 5.7408803e-13)
(0.018164928 2.4773164e-08 3.8798283e-13)
(0.018164927 3.5130701e-08 4.4379041e-13)
(0.01816492 -2.3082557e-08 3.5897883e-13)
(0.018164923 -3.3415473e-08 4.3975552e-13)
(0.021544005 2.4688486e-08 2.8979788e-13)
(0.021544006 3.6742817e-08 3.3749521e-13)
(0.021543998 -2.3056435e-08 2.7225578e-13)
(0.021544 -3.5079483e-08 3.3614681e-13)
(0.025446262 2.4267983e-08 2.1650893e-13)
(0.025446267 3.8153971e-08 2.5655442e-13)
(0.025446258 -2.269695e-08 2.0621601e-13)
(0.025446257 -3.6545052e-08 2.5643556e-13)
(0.029930359 2.3473278e-08 1.6181471e-13)
(0.029930368 3.9298197e-08 1.9491699e-13)
(0.029930358 -2.1965294e-08 1.560289e-13)
(0.029930355 -3.7745785e-08 1.9524728e-13)
(0.035057285 2.2274577e-08 1.2097735e-13)
(0.035057298 4.0105801e-08 1.4721895e-13)
(0.035057287 -2.0831279e-08 1.1793113e-13)
(0.035057281 -3.8611618e-08 1.4837448e-13)
(0.040889759 2.0653562e-08 9.049902e-14)
(0.040889777 4.0505068e-08 1.1092996e-13)
(0.040889765 -1.9276221e-08 8.9066759e-14)
(0.040889757 -3.9070528e-08 1.1254029e-13)
(0.047491506 1.8606173e-08 6.7756714e-14)
(0.04749153 4.0424476e-08 8.3472538e-14)
(0.047491517 -1.7295712e-08 6.7234873e-14)
(0.047491506 -3.9050738e-08 8.5197278e-14)
(0.054926388 1.6145093e-08 5.0789393e-14)
(0.054926418 3.9795442e-08 6.2739544e-14)
(0.054926404 -1.4902094e-08 5.0741665e-14)
(0.054926391 -3.848343e-08 6.4373108e-14)
(0.063257415 1.3301718e-08 3.8127081e-14)
(0.063257451 3.8555604e-08 4.7094718e-14)
(0.063257436 -1.2126428e-08 3.8292341e-14)
(0.063257421 -3.7306027e-08 4.8542761e-14)
(0.072545635 1.0127384e-08 2.86708e-14)
(0.072545678 3.6652659e-08 3.5296619e-14)
(0.072545662 -9.0197108e-09 2.8900649e-14)
(0.072545645 -3.5466027e-08 3.6531373e-14)
(0.082848934 6.6936232e-09 2.1601834e-14)
(0.082848984 3.4048721e-08 2.6409407e-14)
(0.082848968 -5.6531285e-09 2.1817803e-14)
(0.082848949 -3.2925344e-08 2.743323e-14)
(0.094220757 3.0912126e-09 1.6310436e-14)
(0.094220814 3.0725101e-08 1.9722145e-14)
(0.094220797 -2.1171067e-09 1.6476927e-14)
(0.094220778 -2.9665085e-08 2.0554608e-14)
(0.10670878 -5.7213234e-10 1.2344396e-14)
(0.10670884 2.6687346e-08 1.4695694e-14)
(0.10670882 1.4810012e-09 1.2449068e-14)
(0.1067088 -2.5690575e-08 1.5365817e-14)
(0.12035355 -4.1755494e-09 9.3636012e-15)
(0.12035362 2.1970322e-08 1.0925169e-14)
(0.12035361 5.0206989e-09 9.4132593e-15)
(0.12035359 -2.103644e-08 1.1457161e-14)
(0.1351872 -7.5903043e-09 7.1201445e-15)
(0.13518727 1.664304e-08 8.1032835e-15)
(0.13518726 8.3736143e-09 7.1223206e-15)
(0.13518724 -1.577143e-08 8.5169556e-15)
(0.15123211 -1.0686428e-08 5.4271053e-15)
(0.15123218 1.0812878e-08 5.9941415e-15)
(0.15123217 1.1410124e-08 5.3905614e-15)
(0.15123215 -1.0002647e-08 6.3131306e-15)
(0.16849976 -1.3340442e-08 4.1453307e-15)
(0.16849984 4.62877e-09 4.4218781e-15)
(0.16849982 1.4007049e-08 4.0799939e-15)
(0.16849982 -3.8787511e-09 4.6656604e-15)
(0.1869897 -1.5443714e-08 3.169141e-15)
(0.18698978 -1.7170988e-09 3.2557495e-15)
(0.18698976 1.6055973e-08 3.0903855e-15)
(0.18698976 2.4083107e-09 3.4357081e-15)
(0.20668861 -1.6910826e-08 2.4235885e-15)
(0.20668869 -7.9896485e-09 2.3886513e-15)
(0.20668868 1.7471542e-08 2.3456334e-15)
(0.20668868 8.6236075e-09 2.5213529e-15)
(0.2275697 -1.7687142e-08 1.8547754e-15)
(0.22756978 -1.3913947e-08 1.7486392e-15)
(0.22756976 1.8198953e-08 1.7837884e-15)
(0.22756977 1.4492182e-08 1.8414841e-15)
(0.2495922 -1.7754658e-08 1.4189953e-15)
(0.24959227 -1.9181692e-08 1.2754884e-15)
(0.24959225 1.8219698e-08 1.3601778e-15)
(0.24959227 1.9705437e-08 1.3407167e-15)
(0.27270125 -1.7135152e-08 1.0851363e-15)
(0.27270131 -2.3462179e-08 9.2688449e-16)
(0.27270129 1.7554621e-08 1.0460833e-15)
(0.27270132 2.3932014e-08 9.7054012e-16)
(0.29682797 -1.5889809e-08 8.3726917e-16)
(0.29682803 -2.6419476e-08 6.6607674e-16)
(0.296828 1.6263476e-08 8.0676003e-16)
(0.29682804 2.6834898e-08 7.0164366e-16)
(0.32188992 -1.4114911e-08 6.5288303e-16)
(0.32188997 -2.7738907e-08 4.7463824e-16)
(0.32188994 1.4440703e-08 6.2548763e-16)
(0.32188998 2.8097967e-08 5.0647716e-16)
(0.34779177 -1.1933598e-08 5.1835636e-16)
(0.3477918 -2.7166356e-08 3.3260626e-16)
(0.34779177 1.2207559e-08 4.9284881e-16)
(0.34779182 2.7465605e-08 3.6369965e-16)
(0.37442631 -9.4833837e-09 4.2279282e-16)
(0.37442633 -2.4558145e-08 2.3852568e-16)
(0.37442629 9.7004747e-09 3.941334e-16)
(0.37442635 2.4793238e-08 2.5370344e-16)
(0.40167577 -6.9015023e-09 3.4979945e-16)
(0.40167578 -1.9938583e-08 1.7137429e-16)
(0.40167574 7.0571465e-09 3.2399922e-16)
(0.40167579 2.0105511e-08 1.7436311e-16)
(0.42941333 -4.33604e-09 2.9234662e-16)
(0.42941332 -1.3649965e-08 1.2536978e-16)
(0.42941328 4.4285686e-09 2.6494509e-16)
(0.42941334 1.3746065e-08 1.1911921e-16)
(0.45750488 -2.0349374e-09 2.3022427e-16)
(0.45750487 -6.8026242e-09 9.2244317e-17)
(0.45750484 2.069611e-09 2.0432129e-16)
(0.45750488 6.8338473e-09 8.0930796e-17)
(0.485811 -5.3908769e-10 1.2291057e-16)
(0.48581099 -1.8491315e-09 4.4344362e-17)
(0.48581098 5.5145693e-10 1.1126101e-16)
(0.485811 1.8519214e-09 4.5928899e-17)
(-0.032858228 5.0495638e-10 -2.2228699e-12)
(-0.032858236 -8.4972684e-11 5.4663393e-11)
(-0.032858236 -5.9975411e-10 8.9208655e-11)
(-0.032858227 -3.3567263e-10 7.5448946e-11)
(-0.024960862 1.2369744e-09 1.5943786e-11)
(-0.024960869 9.2633015e-11 3.8563289e-11)
(-0.024960868 -1.2209634e-09 9.4744789e-11)
(-0.024960862 -9.7943513e-10 6.4348475e-11)
(-0.0213911 2.9093232e-09 3.3609351e-11)
(-0.02139113 2.1732163e-09 2.8213577e-11)
(-0.02139113 -2.5203802e-09 9.1217151e-11)
(-0.021391096 -2.7086823e-09 5.6762054e-11)
(-0.017087925 7.2464684e-09 4.6600646e-11)
(-0.017087965 6.4245909e-09 2.0334312e-11)
(-0.017087964 -6.6802015e-09 8.3259942e-11)
(-0.017087922 -6.5938916e-09 4.7537764e-11)
(-0.012992644 1.2851129e-08 5.1741184e-11)
(-0.012992691 1.1710322e-08 1.3659477e-11)
(-0.012992691 -1.225573e-08 7.1946697e-11)
(-0.012992641 -1.1599598e-08 3.6449838e-11)
(-0.0097056256 1.9162453e-08 5.0146927e-11)
(-0.0097056715 1.7687052e-08 8.2201664e-12)
(-0.0097056718 -1.8547904e-08 5.9222238e-11)
(-0.0097056252 -1.7378882e-08 2.5517204e-11)
(-0.0072781831 2.4188539e-08 4.4358139e-11)
(-0.0072782152 2.2677977e-08 4.0481925e-12)
(-0.0072782155 -2.351382e-08 4.6720413e-11)
(-0.007278185 -2.2172161e-08 1.6107542e-11)
(-0.0055398086 2.6737653e-08 3.6710205e-11)
(-0.0055398228 2.5477016e-08 1.0771066e-12)
(-0.0055398231 -2.5954734e-08 3.5550781e-11)
(-0.0055398116 -2.4755548e-08 8.815009e-12)
(-0.0042867059 2.6968214e-08 2.8827631e-11)
(-0.0042867049 2.6064828e-08 -8.5609338e-13)
(-0.0042867052 -2.6042832e-08 2.6158997e-11)
(-0.0042867089 -2.5118321e-08 3.6532641e-12)
(-0.0033512585 2.5620246e-08 2.1664357e-11)
(-0.0033512476 2.5054933e-08 -1.966088e-12)
(-0.0033512478 -2.4536438e-08 1.8631465e-11)
(-0.003351261 -2.3888598e-08 3.2141267e-13)
(-0.0026150193 2.3481172e-08 1.5659009e-11)
(-0.002615004 2.3183542e-08 -2.4708511e-12)
(-0.0026150042 -2.2237966e-08 1.2835299e-11)
(-0.0026150212 -2.1814799e-08 -1.5966132e-12)
(-0.0020011782 2.1165811e-08 1.0915724e-11)
(-0.0020011624 2.1061575e-08 -2.5653436e-12)
(-0.0020011626 -1.9771834e-08 8.5284113e-12)
(-0.0020011795 -1.9515107e-08 -2.5111429e-12)
(-0.0014624005 1.9069631e-08 7.3298345e-12)
(-0.0014623868 1.9102075e-08 -2.4131623e-12)
(-0.0014623869 -1.7538532e-08 5.4272657e-12)
(-0.0014624014 -1.7405247e-08 -2.7731422e-12)
(-0.0009698692 1.7398395e-08 4.7232533e-12)
(-0.0009698588 1.7534603e-08 -2.129197e-12)
(-0.00096985893 -1.5746306e-08 3.2641239e-12)
(-0.00096986988 -1.5714417e-08 -2.6497915e-12)
(-0.00050506484 1.6222651e-08 2.8757042e-12)
(-0.00050505812 1.645162e-08 -1.7936079e-12)
(-0.00050505828 -1.4466357e-08 1.8028112e-12)
(-0.00050506546 -1.4533054e-08 -2.329686e-12)
(-5.4205174e-05 1.552886e-08 1.6076056e-12)
(-5.4201942e-05 1.5857867e-08 -1.4575859e-12)
(-5.4202163e-05 -1.3685528e-08 8.5076362e-13)
(-5.4205835e-05 -1.3863332e-08 -1.9333069e-12)
(0.0003952207 1.5259884e-08 7.6937932e-13)
(0.00039522089 1.5710792e-08 -1.1493982e-12)
(0.00039522058 -1.3346969e-08 2.5686316e-13)
(0.00039521992 -1.3660091e-08 -1.5350274e-12)
(0.00085644417 1.5343557e-08 2.4004335e-13)
(0.00085644185 1.5948961e-08 -8.8277919e-13)
(0.00085644143 -1.3377558e-08 -9.2500242e-14)
(0.00085644322 -1.3859437e-08 -1.1744239e-12)
(0.0013444584 1.5707829e-08 -7.5392457e-14)
(0.001344454 1.6509435e-08 -6.6170202e-13)
(0.0013444535 -1.370404e-08 -2.7947108e-13)
(0.0013444572 -1.4396433e-08 -8.6916425e-13)
(0.0018765003 1.628843e-08 -2.4768708e-13)
(0.0018764945 1.7336698e-08 -4.84732e-13)
(0.0018764937 -1.4260826e-08 -3.6210635e-13)
(0.0018764989 -1.5213273e-08 -6.2031024e-13)
(0.002472243 1.7031147e-08 -3.2754495e-13)
(0.002472236 1.8385791e-08 -3.4720655e-13)
(0.002472235 -1.4992352e-08 -3.8149127e-13)
(0.0024722413 -1.626317e-08 -4.2895859e-13)
(0.0031538669 1.7890872e-08 -3.5008167e-13)
(0.0031538591 1.9621885e-08 -2.4300431e-13)
(0.0031538579 -1.5852208e-08 -3.6489535e-13)
(0.0031538649 -1.7510352e-08 -2.8502069e-13)
(0.0039461101 1.8829141e-08 -3.3909764e-13)
(0.0039461016 2.1017964e-08 -1.6584169e-13)
(0.0039461001 -1.6800665e-08 -3.3027764e-13)
(0.0039461077 -1.8926664e-08 -1.7985483e-13)
(0.0048763417 1.9811177e-08 -3.1026636e-13)
(0.0048763329 2.2551756e-08 -1.0977601e-13)
(0.004876331 -1.780175e-08 -2.8835564e-13)
(0.0048763389 -2.0488737e-08 -1.0539277e-13)
(0.0059746761 2.0803135e-08 -2.7354959e-13)
(0.0059746673 2.4202847e-08 -6.972282e-14)
(0.0059746649 -1.8820501e-08 -2.4558448e-13)
(0.0059746729 -2.217504e-08 -5.4349618e-14)
(0.00727412 2.1769912e-08 -2.3502402e-13)
(0.0072741114 2.5949836e-08 -4.1750648e-14)
(0.0072741085 -1.9820787e-08 -2.052238e-13)
(0.0072741164 -2.3963163e-08 -2.0678641e-14)
(0.008810736 2.2673704e-08 -1.9814845e-13)
(0.008810728 2.7767978e-08 -2.2895917e-14)
(0.0088107245 -2.076385e-08 -1.6920606e-13)
(0.008810732 -2.5827629e-08 4.4243819e-16)
(0.010623801 2.3473338e-08 -1.6468757e-13)
(0.010623793 2.9627783e-08 -1.0507151e-14)
(0.010623789 -2.160765e-08 -1.3805482e-13)
(0.010623796 -2.7738261e-08 1.2767067e-14)
(0.012755931 2.412437e-08 -1.3534498e-13)
(0.012755925 3.1493923e-08 -2.6926664e-15)
(0.01275592 -2.2306952e-08 -1.1165949e-13)
(0.012755926 -2.9659091e-08 1.9112432e-14)
(0.015253159 2.4579859e-08 -1.1020585e-13)
(0.015253155 3.3324606e-08 1.9448678e-15)
(0.015253149 -2.28141e-08 -8.9645993e-14)
(0.015253154 -3.1547747e-08 2.1537744e-14)
(0.01816493 2.4791738e-08 -8.9026973e-14)
(0.018164929 3.5071375e-08 4.4321044e-15)
(0.018164922 -2.3080395e-08 -7.1504388e-14)
(0.018164925 -3.3355263e-08 2.1513034e-14)
(0.021544007 2.4712715e-08 -7.14097e-14)
(0.021544008 3.6679305e-08 5.5088631e-15)
(0.021544001 -2.3057988e-08 -5.6697784e-14)
(0.021544002 -3.5026259e-08 2.0061433e-14)
(0.025446264 2.4298581e-08 -5.690143e-14)
(0.025446269 3.8087542e-08 5.6997923e-15)
(0.02544626 -2.2702182e-08 -4.4706201e-14)
(0.025446259 -3.6499475e-08 1.7874068e-14)
(0.029930362 2.3510841e-08 -4.5053496e-14)
(0.02993037 3.9230211e-08 5.3679433e-15)
(0.029930361 -2.1974063e-08 -3.5062663e-14)
(0.029930357 -3.7708674e-08 1.5403266e-14)
(0.035057287 2.2319543e-08 -3.544886e-14)
(0.0350573 4.0037704e-08 4.7420322e-15)
(0.035057289 -2.0843323e-08 -2.7357321e-14)
(0.035057284 -3.8583918e-08 1.293082e-14)
(0.040889761 2.0706166e-08 -2.7715445e-14)
(0.040889779 4.0438413e-08 4.0112456e-15)
(0.040889768 -1.9291137e-08 -2.123472e-14)
(0.040889759 -3.9053281e-08 1.0622556e-14)
(0.047491508 1.8666405e-08 -2.152787e-14)
(0.047491532 4.0360925e-08 3.2709603e-15)
(0.047491519 -1.7312941e-08 -1.6395304e-14)
(0.047491508 -3.9045041e-08 8.5631306e-15)
(0.054926391 1.6212658e-08 -1.6605997e-14)
(0.054926421 3.9736732e-08 2.5793164e-15)
(0.054926407 -1.4920914e-08 -1.2589992e-14)
(0.054926393 -3.8490395e-08 6.7858374e-15)
(0.063257417 1.3376006e-08 -1.2713201e-14)
(0.063257454 3.8503516e-08 1.966216e-15)
(0.063257439 -1.214595e-08 -9.6131155e-15)
(0.063257423 -3.7326733e-08 5.2908511e-15)
(0.072545637 1.0207452e-08 -9.65324e-15)
(0.07254568 3.6608988e-08 1.4452204e-15)
(0.072545665 -9.0388859e-09 -7.2961552e-15)
(0.072545647 -3.5501461e-08 4.0582963e-15)
(0.082848936 6.7781873e-09 -7.2612343e-15)
(0.082848986 3.401523e-08 1.0157416e-15)
(0.08284897 -5.6707619e-09 -5.5039334e-15)
(0.082848951 -3.2976345e-08 3.0616813e-15)
(0.094220759 3.1786648e-09 -5.4035259e-15)
(0.094220815 3.070346e-08 6.7211337e-16)
(0.094220799 -2.1318878e-09 -4.1246598e-15)
(0.09422078 -2.9732274e-08 2.2677893e-15)
(0.10670878 -4.8369096e-10 -3.9742539e-15)
(0.10670884 2.6679063e-08 4.0678068e-16)
(0.10670883 1.4704554e-09 -3.0658564e-15)
(0.10670881 -2.577429e-08 1.6424408e-15)
(0.12035356 -4.0882506e-09 -2.883206e-15)
(0.12035362 2.1976664e-08 2.0795081e-16)
(0.12035361 5.0157847e-09 -2.2579949e-15)
(0.12035359 -2.1136658e-08 1.1582169e-15)
(0.1351872 -7.5064291e-09 -2.0569531e-15)
(0.13518727 1.6664944e-08 6.1195693e-17)
(0.13518726 8.3756655e-09 -1.6458267e-15)
(0.13518724 -1.5887695e-08 7.9071133e-16)
(0.15123211 -1.0608297e-08 -1.4399432e-15)
(0.15123218 1.0850858e-08 -4.1565167e-17)
(0.15123217 1.1420321e-08 -1.184683e-15)
(0.15123216 -1.0133993e-08 5.1711108e-16)
(0.16849976 -1.327028e-08 -9.8316151e-16)
(0.16849984 4.6828225e-09 -1.1057205e-16)
(0.16849982 1.4026314e-08 -8.408717e-16)
(0.16849982 -4.0236367e-09 3.1809707e-16)
(0.1869897 -1.5383494e-08 -6.4748092e-16)
(0.18698978 -1.6475797e-09 -1.5378473e-16)
(0.18698976 1.6084856e-08 -5.8873907e-16)
(0.18698976 2.2520659e-09 1.7753161e-16)
(0.20668861 -1.6862092e-08 -4.0044741e-16)
(0.20668869 -7.9059456e-09 -1.80663e-16)
(0.20668867 1.7510109e-08 -4.1032542e-16)
(0.20668868 8.4588714e-09 8.607636e-17)
(0.2275697 -1.765083e-08 -2.2484821e-16)