/*--------------------------------*- C++ -*----------------------------------*\
| =========                 |                                                 |
| \\      /  F ield         | OpenFOAM: The Open Source CFD Toolbox           |
|  \\    /   O peration     | Version:  3.0.x                                 |
|   \\  /    A nd           | Web:      www.OpenFOAM.org                      |
|    \\/     M anipulation  |                                                 |
\*---------------------------------------------------------------------------*/
FoamFile
{
    version     2.0;
    format      ascii;
    class       volScalarField;
    location    "425";
    object      sigmaxz;
}
// * * * * * * * * * * * * * * * * * * * * * * * * * * * * * * * * * * * * * //

dimensions      [0 2 -2 0 0 0 0];

internalField   nonuniform List<scalar> 
960
(
3.6770661e-12
-1.3852243e-11
-3.6770661e-12
1.3852243e-11
5.0540252e-12
-1.3335924e-11
-5.0540252e-12
1.3335926e-11
5.5828955e-12
-1.0618456e-11
-5.5828955e-12
1.0618457e-11
5.2011856e-12
-7.519434e-12
-5.2011856e-12
7.519434e-12
4.3306625e-12
-4.9494572e-12
-4.3306625e-12
4.9494578e-12
3.3389274e-12
-3.0030721e-12
-3.3389268e-12
3.0030715e-12
2.4181677e-12
-1.7197873e-12
-2.4181677e-12
1.7197873e-12
1.6523595e-12
-9.4510404e-13
-1.6523595e-12
9.4510404e-13
1.0673947e-12
-4.7325995e-13
-1.0673941e-12
4.7325995e-13
6.4167961e-13
-1.820412e-13
-6.4167961e-13
1.820412e-13
3.5118386e-13
-5.8900998e-15
-3.5118386e-13
5.8912638e-15
1.6287344e-13
9.4044522e-14
-1.6287344e-13
-9.4044522e-14
4.8332388e-14
1.3916042e-13
-4.8332388e-14
-1.3915926e-13
-1.5923108e-14
1.5186588e-13
1.5923108e-14
-1.5186471e-13
-4.7519941e-14
1.4467442e-13
4.7521105e-14
-1.4467442e-13
-5.9075754e-14
1.2817965e-13
5.9075754e-14
-1.2817849e-13
-5.9189827e-14
1.0797395e-13
5.9189827e-14
-1.0797511e-13
-5.3456742e-14
8.77289e-14
5.3456742e-14
-8.77289e-14
-4.5306102e-14
6.9647906e-14
4.5306102e-14
-6.9645578e-14
-3.6731231e-14
5.3848903e-14
3.6731231e-14
-5.3848903e-14
-2.8791543e-14
4.0714031e-14
2.8791543e-14
-4.0714031e-14
-2.1953984e-14
3.025345e-14
2.1951656e-14
-3.025345e-14
-1.634871e-14
2.2109015e-14
1.634871e-14
-2.2109015e-14
-1.1937278e-14
1.5874774e-14
1.1937278e-14
-1.5872446e-14
-8.5458707e-15
1.1179343e-14
8.5458707e-15
-1.1179343e-14
-5.9803969e-15
7.7090338e-15
5.9803969e-15
-7.7090338e-15
-4.055494e-15
5.1923636e-15
4.0508378e-15
-5.1923636e-15
-2.6610577e-15
3.388659e-15
2.6610577e-15
-3.388659e-15
-1.6788722e-15
2.1217721e-15
1.6788722e-15
-2.1217721e-15
-9.9354868e-16
1.2602007e-15
9.9820481e-16
-1.2602007e-15
-5.3860677e-16
6.9366818e-16
5.3860677e-16
-6.9366818e-16
-2.3615755e-16
3.300062e-16
2.3615755e-16
-3.300062e-16
-4.4218206e-17
1.0539176e-16
4.8874342e-17
-1.0539176e-16
7.1328776e-17
-2.3752048e-17
-7.1328776e-17
2.3752048e-17
1.3468072e-16
-8.9760144e-17
-1.3468072e-16
8.9760144e-17
1.6396201e-16
-1.0712906e-16
-1.6396201e-16
1.1644133e-16
1.7494923e-16
-1.1940335e-16
-1.7494923e-16
1.1940335e-16
1.7204748e-16
-1.0919793e-16
-1.6273521e-16
1.0919793e-16
1.6032469e-16
-9.3403065e-17
-1.6032469e-16
9.3403065e-17
1.4373795e-16
-7.685039e-17
-1.4373795e-16
7.685039e-17
1.2506638e-16
-5.2237981e-17
-1.2506638e-16
6.1550253e-17
1.0589692e-16
-4.8357044e-17
-1.0589692e-16
4.8357044e-17
8.8579578e-17
-2.938469e-17
-8.8579578e-17
3.8696962e-17
7.356781e-17
-3.1917179e-17
-7.356781e-17
3.1917179e-17
6.1007509e-17
-2.7442702e-17
-6.1007509e-17
2.7442702e-17
6.861866e-17
-2.4425487e-17
-4.9994117e-17
2.4425487e-17
4.1259949e-17
-2.2260872e-17
-4.1259949e-17
2.2260872e-17
3.2778457e-17
-2.0164721e-17
-3.2778457e-17
2.0164721e-17
2.6369875e-17
-1.8217022e-17
-2.6369875e-17
1.8217022e-17
2.1762514e-17
-1.6441749e-17
-2.1762514e-17
1.6441749e-17
1.8842771e-17
-1.4212538e-17
-1.8842771e-17
1.4212538e-17
1.5807759e-17
6.8002503e-18
-1.5807759e-17
1.1824293e-17
1.3423525e-17
-8.853774e-18
-3.2048069e-17
8.853774e-18
1.0448646e-17
-8.1001022e-18
-1.0448646e-17
8.1001022e-18
9.7087161e-18
-6.8836544e-18
-9.7087161e-18
6.8836544e-18
9.6232817e-18
-7.240212e-18
-9.6232817e-18
7.240212e-18
2.7507863e-17
1.1572153e-17
-8.8833197e-18
7.0523906e-18
9.3630914e-18
1.3565034e-17
-9.3630914e-18
5.0595098e-18
7.5117551e-18
-6.1448176e-18
-7.5117551e-18
6.1448176e-18
4.4536711e-18
1.2107681e-17
-4.4536711e-18
6.5168625e-18
-9.953508e-12
5.3104994e-10
9.953508e-12
-3.6461592e-10
-1.0194549e-11
3.6597622e-10
1.0194549e-11
-3.6597622e-10
-7.939054e-12
7.4076951e-11
7.939054e-12
-2.4051096e-10
-5.2831932e-12
8.7877077e-12
5.2831932e-12
-8.7877077e-12
-1.6959739e-10
-1.8224452e-10
1.6959739e-10
1.5810501e-11
-1.6773852e-12
-1.9397461e-11
1.6773847e-12
1.9397462e-11
-7.190299e-13
-1.6000446e-11
7.190299e-13
1.6000446e-11
-1.9680656e-13
-1.1816366e-11
1.9680656e-13
1.1816366e-11
7.8235637e-14
-8.5122577e-12
-7.8235637e-14
8.5122577e-12
2.1516889e-13
-6.1544459e-12
-2.1516889e-13
6.1544459e-12
2.6182018e-13
-4.4934613e-12
-2.6182018e-13
4.4934613e-12
2.5789333e-13
-3.3056754e-12
-2.5789333e-13
3.3056754e-12
2.333563e-13
-2.442661e-12
-2.333563e-13
2.442661e-12
1.996123e-13
-1.8013829e-12
-1.996123e-13
1.8013829e-12
1.6407098e-13
-1.3166521e-12
-1.6407098e-13
1.3166521e-12
1.3103916e-13
-9.5374178e-13
-1.3103916e-13
9.5374062e-13
1.0233412e-13
-6.8960193e-13
-1.0233412e-13
6.896031e-13
7.8430698e-14
-4.9845124e-13
-7.8430698e-14
4.9845124e-13
5.9144141e-14
-3.5878621e-13
-5.9144141e-14
3.5878621e-13
4.3971318e-14
-2.5723364e-13
-4.3971318e-14
2.5723364e-13
3.2267811e-14
-1.8411144e-13
-3.2267811e-14
1.8411144e-13
2.338358e-14
-1.3111515e-13
-2.338358e-14
1.3111515e-13
1.6721209e-14
-9.2876992e-14
-1.6721209e-14
9.2876992e-14
1.1740357e-14
-6.542513e-14
-1.1740357e-14
6.542513e-14
8.0918171e-15
-4.5796303e-14
-8.0918171e-15
4.5796303e-14
5.4491362e-15
-3.1876002e-14
-5.4491362e-15
3.1876002e-14
3.6206838e-15
-2.2034567e-14
-3.6160276e-15
2.2034567e-14
2.3538713e-15
-1.51417e-14
-2.3538713e-15
1.51417e-14
1.4629359e-15
-1.0291277e-14
-1.4629359e-15
1.0291277e-14
8.7251351e-16
-6.9539362e-15
-8.7251351e-16
6.9539362e-15
4.7548134e-16
-4.6751561e-15
-4.7548134e-16
4.6751561e-15
2.1404313e-16
-3.1207233e-15
-2.1404313e-16
3.1207233e-15
4.8744079e-17
-2.0678193e-15
-4.8744079e-17
2.0678193e-15
-5.1299624e-17
-1.3617041e-15
5.1299624e-17
1.3617041e-15
-1.08413e-16
-8.9200379e-16
1.08413e-16
8.9200379e-16
-1.3786966e-16
-5.8180477e-16
1.3786966e-16
5.8180477e-16
-1.4249529e-16
-3.7875009e-16
1.4249529e-16
3.7875009e-16
-1.3671752e-16
-2.4651612e-16
1.3671752e-16
2.4651612e-16
-1.2504301e-16
-1.611013e-16
1.2504301e-16
1.611013e-16
-1.0998549e-16
-1.0532184e-16
1.0998549e-16
1.0532184e-16
-9.4574914e-17
-6.9105007e-17
9.4574914e-17
6.9105007e-17
-8.0284557e-17
-4.5464517e-17
8.0284557e-17
4.5464517e-17
-6.759586e-17
-3.0554353e-17
6.759586e-17
3.0554353e-17
-5.581388e-17
-2.0563608e-17
5.581388e-17
2.0563608e-17
-4.5069143e-17
-1.3650474e-17
4.5069143e-17
1.3650474e-17
-3.5241016e-17
-8.8996955e-18
3.5241016e-17
8.8996955e-18
-2.7887336e-17
-5.8352465e-18
2.7887336e-17
5.8352465e-18
-2.1691898e-17
-3.5217438e-18
2.1691898e-17
3.5217438e-18
-1.7598142e-17
-1.1013421e-18
1.7598142e-17
1.1013421e-18
-1.354791e-17
4.9539917e-19
-5.0766334e-18
-4.9539917e-19
-1.1989655e-17
2.2709206e-18
1.1989655e-17
-2.2709206e-18
-1.1272804e-17
3.7344328e-18
1.1272804e-17
-3.7344328e-18
-1.0746253e-17
2.9577074e-18
1.0746253e-17
-2.9577074e-18
-1.0806043e-17
1.9976709e-18
1.0806043e-17
-1.9976709e-18
-1.1709051e-17
2.627218e-18
1.1709051e-17
-2.627218e-18
-1.0870118e-17
2.7551552e-18
1.0870118e-17
-2.7551552e-18
-9.5968024e-18
1.4832117e-18
9.5968024e-18
-1.4832117e-18
-9.2141276e-18
2.7375383e-19
9.2141276e-18
-2.7375383e-19
-7.0327487e-18
-6.3243161e-20
7.0327487e-18
6.3243161e-20
-4.6565617e-18
5.5502682e-19
4.6565617e-18
-5.5502682e-19
-3.6770661e-12
1.3852243e-11
3.6770661e-12
-1.3852243e-11
-5.0540252e-12
1.3335925e-11
5.0540252e-12
-1.3335926e-11
-5.5828955e-12
1.0618457e-11
5.5828955e-12
-1.0618457e-11
-5.2011856e-12
7.519434e-12
5.2011856e-12
-7.519434e-12
-4.3306625e-12
4.9494572e-12
4.3306625e-12
-4.9494566e-12
-3.3389268e-12
3.0030715e-12
3.3389268e-12
-3.0030727e-12
-2.4181677e-12
1.7197873e-12
2.4181677e-12
-1.7197867e-12
-1.6523595e-12
9.4510404e-13
1.6523595e-12
-9.4510404e-13
-1.0673947e-12
4.7325995e-13
1.0673947e-12
-4.7325995e-13
-6.4167961e-13
1.820412e-13
6.4167961e-13
-1.820412e-13
-3.5118384e-13
5.8900998e-15
3.5118384e-13
-5.8912638e-15
-1.6287344e-13
-9.4044522e-14
1.6287344e-13
9.4044522e-14
-4.8332388e-14
-1.3915926e-13
4.8332388e-14
1.3915926e-13
1.5923108e-14
-1.5186471e-13
-1.5923108e-14
1.5186471e-13
4.7521105e-14
-1.4467442e-13
-4.7521105e-14
1.4467442e-13
5.9075754e-14
-1.2817849e-13
-5.9075754e-14
1.2817849e-13
5.9189844e-14
-1.0797395e-13
-5.9189844e-14
1.0797395e-13
5.3456742e-14
-8.77289e-14
-5.3456742e-14
8.77289e-14
4.5306102e-14
-6.9645578e-14
-4.5306102e-14
6.9645578e-14
3.6731231e-14
-5.3848903e-14
-3.6731231e-14
5.3848903e-14
2.8791543e-14
-4.0714031e-14
-2.8791543e-14
4.0714031e-14
2.1951656e-14
-3.0253448e-14
-2.1951656e-14
3.0253448e-14
1.634871e-14
-2.2109015e-14
-1.634871e-14
2.2109015e-14
1.1937278e-14
-1.5872446e-14
-1.1937278e-14
1.5872446e-14
8.5458707e-15
-1.1179343e-14
-8.5458707e-15
1.1179343e-14
5.9803969e-15
-7.7090338e-15
-5.9803969e-15
7.7090338e-15
4.0554941e-15
-5.1923635e-15
-4.0554941e-15
5.1923635e-15
2.6610577e-15
-3.388659e-15
-2.6610577e-15
3.388659e-15
1.6788722e-15
-2.1217721e-15
-1.6788722e-15
2.1217721e-15
9.9820481e-16
-1.2602009e-15
-9.9820481e-16
1.2602009e-15
5.3860677e-16
-6.9366835e-16
-5.3860677e-16
6.9366835e-16
2.3615755e-16
-3.300062e-16
-2.3615755e-16
3.300062e-16
4.4218206e-17
-1.0539174e-16
-4.4218206e-17
1.0539174e-16
-7.1328776e-17
2.3752048e-17
7.1328776e-17
-2.3752048e-17
-1.3468073e-16
8.9760144e-17
1.3468073e-16
-8.9760144e-17
-1.63962e-16
1.1644133e-16
1.63962e-16
-1.1644133e-16
-1.7494923e-16
1.1940334e-16
1.7494923e-16
-1.1940334e-16
-1.7204748e-16
1.0919792e-16
1.7204748e-16
-1.0919792e-16
-1.6032469e-16
9.3403057e-17
1.6032469e-16
-9.3403057e-17
-1.4373795e-16
7.6850374e-17
1.4373795e-16
-7.6850374e-17
-1.2506638e-16
6.1550245e-17
1.2506638e-16
-6.1550245e-17
-1.0589692e-16
4.8357037e-17
1.0589692e-16
-4.8357037e-17
-8.8579576e-17
3.8696962e-17
8.8579576e-17
-3.8696962e-17
-7.3567809e-17
3.1917179e-17
7.3567809e-17
-3.1917179e-17
-6.1007508e-17
2.7442702e-17
6.1007508e-17
-2.7442702e-17
-4.9994116e-17
2.4425485e-17
4.9994116e-17
-2.4425485e-17
-4.1259949e-17
2.2260874e-17
4.1259949e-17
-2.2260874e-17
-3.2778456e-17
2.0164723e-17
3.2778456e-17
-2.0164723e-17
-2.6369874e-17
1.8217022e-17
2.6369874e-17
-1.8217022e-17
-2.1762512e-17
3.5066291e-17
2.1762512e-17
-1.6441747e-17
-1.8842771e-17
1.4212538e-17
1.8842771e-17
-1.4212538e-17
-1.5807758e-17
1.1824294e-17
1.5807758e-17
-1.1824294e-17
-1.3423525e-17
8.8537741e-18
1.3423525e-17
-8.8537741e-18
-1.0448645e-17
8.1001025e-18
1.0448645e-17
-8.1001025e-18
-9.7087163e-18
6.8836548e-18
9.7087163e-18
-6.8836548e-18
-9.6232815e-18
7.2402123e-18
9.6232815e-18
-7.2402123e-18
-8.8833193e-18
7.0523914e-18
8.8833193e-18
-7.0523914e-18
-9.3630914e-18
5.0595104e-18
9.3630914e-18
-5.0595104e-18
-7.5117551e-18
6.1448178e-18
7.5117551e-18
-6.1448178e-18
-4.4536708e-18
6.5168626e-18
4.4536708e-18
-6.5168626e-18
9.953508e-12
-5.3104994e-10
-9.9535069e-12
3.6461592e-10
1.0194551e-11
-3.6597622e-10
-1.0194548e-11
3.6597622e-10
7.939054e-12
-7.4076951e-11
-7.939054e-12
2.4051096e-10
5.2831937e-12
-8.7877077e-12
-5.2831932e-12
8.7877077e-12
1.6959739e-10
1.8224452e-10
-1.6959739e-10
-1.5810502e-11
1.6773852e-12
1.9397461e-11
-1.6773847e-12
-1.9397461e-11
7.190299e-13
1.6000446e-11
-7.190299e-13
-1.6000446e-11
1.9680656e-13
1.1816366e-11
-1.9680656e-13
-1.1816366e-11
-7.8235637e-14
8.5122577e-12
7.8235637e-14
-8.5122577e-12
-2.1516831e-13
6.1544459e-12
2.1516889e-13
-6.1544453e-12
-2.6182018e-13
4.4934613e-12
2.6182018e-13
-4.4934613e-12
-2.5789333e-13
3.3056754e-12
2.5789333e-13
-3.3056742e-12
-2.3335514e-13
2.4426611e-12
2.333563e-13
-2.4426611e-12
-1.996123e-13
1.8013829e-12
1.9961347e-13
-1.8013829e-12
-1.6407098e-13
1.3166521e-12
1.6407098e-13
-1.3166521e-12
-1.3103916e-13
9.5374062e-13
1.3103916e-13
-9.5373945e-13
-1.0233412e-13
6.8960193e-13
1.0233412e-13
-6.8960193e-13
-7.8430698e-14
4.9845124e-13
7.8430698e-14
-4.9845124e-13
-5.9144141e-14
3.5878621e-13
5.9144141e-14
-3.5878621e-13
-4.3968989e-14
2.5723364e-13
4.3971318e-14
-2.5723364e-13
-3.2267811e-14
1.8411144e-13
3.2267811e-14
-1.8411144e-13
-2.3381252e-14
1.3111515e-13
2.338358e-14
-1.3111515e-13
-1.6718881e-14
9.2876992e-14
1.6721209e-14
-9.2876992e-14
-1.1740357e-14
6.542513e-14
1.1740357e-14
-6.542513e-14
-8.0918171e-15
4.5796303e-14
8.0918171e-15
-4.5796303e-14
-5.4444801e-15
3.1876002e-14
5.4491362e-15
-3.1871346e-14
-3.6206838e-15
2.2034566e-14
3.6206838e-15
-2.2034566e-14
-2.3492151e-15
1.51417e-14
2.3538713e-15
-1.5137044e-14
-1.4582797e-15
1.0291277e-14
1.4629359e-15
-1.0291277e-14
-8.7251351e-16
6.9539362e-15
8.7251351e-16
-6.9539362e-15
-4.7548134e-16
4.6751561e-15
4.7548134e-16
-4.6705e-15
-2.1404313e-16
3.1207233e-15
2.1869927e-16
-3.1160672e-15
-4.8744079e-17
2.0678193e-15
4.8744079e-17
-2.0631632e-15
5.1299607e-17
1.3617041e-15
-5.1299607e-17
-1.3617041e-15
1.0841301e-16
8.920038e-16
-1.0841301e-16
-8.920038e-16
1.3786966e-16
5.8180477e-16
-1.3786966e-16
-5.8180477e-16
1.4249531e-16
3.7875009e-16
-1.4249531e-16
-3.7875009e-16
1.3671752e-16
2.4651612e-16
-1.3671752e-16
-2.4651612e-16
1.2504301e-16
1.6110129e-16
-1.1573074e-16
-1.6110129e-16
1.0998549e-16
1.0532183e-16
-1.0998549e-16
-1.0532183e-16
9.4574914e-17
6.9105006e-17
-9.4574914e-17
-5.9792734e-17
8.0284557e-17
4.5464517e-17
-8.0284557e-17
-4.5464517e-17
7.6908132e-17
3.0554354e-17
-6.759586e-17
-2.1242082e-17
6.5126135e-17
2.0563608e-17
-5.5813863e-17
-2.0563608e-17
4.5069138e-17
1.3650474e-17
-4.5069138e-17
-1.3650474e-17
3.5241018e-17
8.8996955e-18
-3.5241018e-17
-8.8996955e-18
2.7887339e-17
5.8352465e-18
-2.7887339e-17
1.2789297e-17
2.1691898e-17
3.5217454e-18
-2.1691898e-17
1.5102798e-17
1.7598144e-17
1.1013421e-18
-1.7598144e-17
-1.1013421e-18
3.2172457e-17
-4.953975e-19
5.07663e-18
4.953975e-19
1.1989655e-17
-2.2709206e-18
-1.1989655e-17
2.2709206e-18
1.1272804e-17
-3.7344316e-18
-1.1272804e-17
3.7344316e-18
1.0746252e-17
-2.9577082e-18
7.8782914e-18
2.9577082e-18
2.9430588e-17
-1.9976702e-18
-1.0806044e-17
2.0622214e-17
3.0333596e-17
-2.6272175e-18
-1.1709052e-17
2.6272175e-18
1.0870119e-17
-2.755155e-18
-1.0870119e-17
2.755155e-18
9.5968029e-18
-1.4832117e-18
-9.5968029e-18
2.0107755e-17
2.7838672e-17
-2.73754e-19
-9.2141281e-18
1.8898298e-17
7.032749e-18
6.3243078e-20
-7.032749e-18
-6.3243078e-20
4.6565617e-18
-5.5502698e-19
-4.6565617e-18
1.9179571e-17
)
;

boundaryField
{
    movingWall
    {
        type            calculated;
        value           nonuniform List<scalar> 
16
(
4.4536711e-18
-4.6565617e-18
-4.4536708e-18
4.6565617e-18
1.2107681e-17
5.5502682e-19
6.5168626e-18
-5.5502698e-19
-4.4536711e-18
4.6565617e-18
4.4536708e-18
-4.6565617e-18
6.5168625e-18
-5.5502682e-19
-6.5168626e-18
1.9179571e-17
)
;
    }
    CPLReceiveMD
    {
        type            calculated;
        value           nonuniform List<scalar> 
16
(
3.6770661e-12
-9.953508e-12
-3.6770661e-12
9.953508e-12
-1.3852243e-11
5.3104994e-10
1.3852243e-11
-5.3104994e-10
-3.6770661e-12
9.953508e-12
3.6770661e-12
-9.9535069e-12
1.3852243e-11
-3.6461592e-10
-1.3852243e-11
3.6461592e-10
)
;
    }
    streamwiseIn
    {
        type            cyclic;
    }
    streamwiseOut
    {
        type            cyclic;
    }
    front
    {
        type            cyclic;
    }
    back
    {
        type            cyclic;
    }
}


// ************************************************************************* //
