/*--------------------------------*- C++ -*----------------------------------*\
| =========                 |                                                 |
| \\      /  F ield         | OpenFOAM: The Open Source CFD Toolbox           |
|  \\    /   O peration     | Version:  3.0.x                                 |
|   \\  /    A nd           | Web:      www.OpenFOAM.org                      |
|    \\/     M anipulation  |                                                 |
\*---------------------------------------------------------------------------*/
FoamFile
{
    version     2.0;
    format      ascii;
    class       volScalarField;
    location    "425";
    object      sigmayz;
}
// * * * * * * * * * * * * * * * * * * * * * * * * * * * * * * * * * * * * * //

dimensions      [0 2 -2 0 0 0 0];

internalField   nonuniform List<scalar> 
960
(
1.6904351e-11
-5.2153673e-11
-8.4373683e-11
-8.9272791e-11
-3.3672599e-11
1.8620439e-11
-6.2175719e-13
7.2559148e-12
-3.7382549e-11
2.2911618e-11
1.0294813e-11
2.3035907e-11
-2.8836636e-11
2.1118953e-11
1.6104949e-11
3.0987595e-11
-1.6645577e-11
1.7138077e-11
1.8939362e-11
3.157935e-11
-6.2630771e-12
1.2886259e-11
1.9352818e-11
2.7843435e-11
1.7909464e-12
9.1422434e-12
1.8256881e-11
2.2429473e-11
6.2114874e-12
6.0117272e-12
1.6260236e-11
1.6700991e-11
7.666255e-12
3.492291e-12
1.3842704e-11
1.1509343e-11
7.5905736e-12
1.6222556e-12
1.1376216e-11
7.3098794e-12
6.8420069e-12
3.183215e-13
9.0758461e-12
4.1222834e-12
5.8932884e-12
-5.5855716e-13
7.0662156e-12
1.8476296e-12
4.9421163e-12
-1.068041e-12
5.4113075e-12
3.5229334e-13
4.0591516e-12
-1.3031109e-12
4.1075182e-12
-5.4191505e-13
3.2835364e-12
-1.3490358e-12
3.0974979e-12
-1.0065904e-12
2.6062546e-12
-1.2778853e-12
2.3158061e-12
-1.1855589e-12
2.0420595e-12
-1.1424468e-12
1.7214024e-12
-1.1874142e-12
1.5824922e-12
-9.7937645e-13
1.2784982e-12
-1.0899465e-12
1.2145156e-12
-8.1287256e-13
9.4580044e-13
-9.4615426e-13
9.2460073e-13
-6.5761176e-13
6.9509613e-13
-7.890577e-13
6.9914759e-13
-5.2025987e-13
5.1195641e-13
-6.3783029e-13
5.2540827e-13
-4.0393565e-13
3.7779402e-13
-5.029124e-13
3.924736e-13
-3.0872199e-13
2.7833233e-13
-3.882418e-13
2.9142578e-13
-2.3237318e-13
2.0464535e-13
-2.942955e-13
2.1496711e-13
-1.7261206e-13
1.5008267e-13
-2.1988559e-13
1.5732388e-13
-1.2656119e-13
1.0971454e-13
-1.621897e-13
1.1418405e-13
-9.172236e-14
7.9779422e-14
-1.1787702e-13
8.21017e-14
-6.5668459e-14
5.7593275e-14
-8.4420394e-14
5.8387033e-14
-4.6389955e-14
4.1340595e-14
-5.9479918e-14
4.1042584e-14
-3.2393997e-14
2.9553289e-14
-4.1246427e-14
2.842729e-14
-2.2537404e-14
2.0891185e-14
-2.8390969e-14
1.9355088e-14
-1.5307338e-14
1.4540645e-14
-1.9100094e-14
1.2886036e-14
-1.0322826e-14
9.9509528e-15
-1.2658195e-14
8.3224052e-15
-6.8356817e-15
6.6658441e-15
-8.1780918e-15
5.1717345e-15
-4.4431191e-15
4.3378816e-15
-5.1103156e-15
3.0225237e-15
-2.8340419e-15
2.7051637e-15
-3.093708e-15
1.5969808e-15
-1.7441294e-15
1.6090828e-15
-1.7762166e-15
6.7540364e-16
-1.0305789e-15
8.2851605e-16
-8.8766006e-16
1.1420809e-16
-5.8377882e-16
3.424398e-16
-3.3828518e-16
-2.1150487e-16
-2.9327927e-16
1.476351e-17
-3.5659599e-18
-3.9373711e-16
-1.264794e-16
-1.6415738e-16
1.9012687e-16
-4.5819891e-16
-1.0806808e-17
-2.6764515e-16
2.6713837e-16
-4.5820584e-16
1.8020315e-17
-3.0974719e-16
3.1275248e-16
-4.0944044e-16
3.2723383e-17
-3.3149108e-16
3.0857723e-16
-3.8572043e-16
2.018315e-16
-3.0605942e-16
2.9538376e-16
-3.2699055e-16
3.3409036e-17
-2.7313964e-16
2.7821129e-16
-2.8685411e-16
2.8356989e-17
-2.3665845e-16
2.6311139e-16
-2.485996e-16
2.1836905e-17
-1.9926476e-16
8.0928201e-17
-1.9331977e-16
1.8747791e-17
-1.6190174e-16
6.2464591e-17
-1.5864509e-16
1.8379938e-16
-1.2610988e-16
2.1367071e-16
-1.3032432e-16
1.4316594e-17
-9.5356533e-17
3.7948054e-17
-1.024267e-16
8.5311456e-18
-6.4517028e-17
3.0037439e-17
-8.2791978e-17
1.6747957e-18
-4.8040435e-17
2.294245e-17
-5.8652444e-17
-6.8773742e-19
-4.051511e-17
1.4054491e-17
-4.4943468e-17
1.6771948e-16
-3.6537971e-17
4.5609204e-18
-2.4455314e-17
-3.7671232e-18
-2.5124944e-17
-4.9153541e-19
-1.4695988e-17
-1.0412346e-17
3.944175e-18
-9.3797803e-18
1.39252e-18
-1.8895362e-17
9.9872462e-18
3.1910973e-18
7.9514074e-18
-5.938046e-18
-9.8153495e-18
-3.0984004e-18
-5.6041664e-17
-8.1007711e-18
-1.311685e-17
3.9384054e-17
-1.4489682e-09
-4.9086478e-10
-2.5290967e-10
-4.1318266e-10
9.0358175e-10
-8.3014024e-11
5.4860238e-12
-1.0229269e-10
1.021986e-09
1.5434222e-10
1.0205509e-10
1.1673736e-10
4.5957499e-10
1.6920857e-10
8.7072329e-11
1.3228145e-10
1.7233137e-10
1.445128e-10
5.8322696e-11
1.1609668e-10
3.4875305e-11
1.2251553e-10
3.8607573e-11
1.0280264e-10
-7.4914063e-12
1.0663952e-10
2.8389442e-11
9.4421252e-11
-1.1712457e-11
9.2485921e-11
2.3518264e-11
8.5739462e-11
-7.4271661e-12
7.8188456e-11
2.0556102e-11
7.4611112e-11
-3.5054573e-12
6.4441013e-11
1.8014043e-11
6.2779146e-11
-1.0921032e-12
5.1772159e-11
1.5534029e-11
5.1302222e-11
1.7610707e-13
4.049206e-11
1.3083048e-11
4.0634783e-11
7.0638162e-13
3.1045368e-11
1.0766087e-11
3.1454226e-11
8.058345e-13
2.3391607e-11
8.7053741e-12
2.3906131e-11
7.7970416e-13
1.7375835e-11
6.9466265e-12
1.7896387e-11
7.3599028e-13
1.2750466e-11
5.4207792e-12
1.3224432e-11
6.5746618e-13
9.2532982e-12
4.1275583e-12
9.6599152e-12
5.5546607e-13
6.6503998e-12
3.1168472e-12
6.9856869e-12
4.4836796e-13
4.7373445e-12
2.3385033e-12
5.0055796e-12
3.4967688e-13
3.3461193e-12
1.7301135e-12
3.5556343e-12
2.6593589e-13
2.3450764e-12
1.2684357e-12
2.505835e-12
1.9906577e-13
1.6318619e-12
9.2688529e-13
1.7533084e-12
1.4905109e-13
1.1272747e-12
6.741392e-13
1.2182516e-12
1.119987e-13
7.7302044e-13
4.8867318e-13
8.4038657e-13
8.4631559e-14
5.2623488e-13
3.5309886e-13
5.751681e-13
6.4333823e-14
3.5548641e-13
2.5448169e-13
3.9020638e-13
4.9234619e-14
2.3822505e-13
1.8311709e-13
2.6232543e-13
3.7761674e-14
1.5844443e-13
1.317071e-13
1.7516273e-13
2.8902592e-14
1.0424923e-13
9.4396289e-14
1.1562032e-13
2.2341437e-14
6.7676527e-14
6.7279034e-14
7.5256791e-14
1.7166499e-14
4.3333114e-14
4.7856978e-14
4.8442765e-14
1.3101907e-14
2.7216252e-14
3.3984403e-14
3.0407667e-14
9.9229956e-15
1.6596294e-14
2.4043687e-14
1.8548051e-14
7.4698029e-15
9.7190527e-15
1.692933e-14
1.0858676e-14
5.5614034e-15
5.3297445e-15
1.1835326e-14
5.922949e-15
4.1142204e-15
2.5806491e-15
8.2481376e-15
2.7824784e-15
3.0051463e-15
9.1738138e-16
5.7171425e-15
8.6287891e-16
2.1734848e-15
-6.0559354e-17
3.9193249e-15
-2.2967921e-16
1.5387417e-15
-5.796574e-16
2.6815906e-15
-8.1889075e-16
1.0732252e-15
-8.3142552e-16
1.821111e-15
-1.068842e-15
7.4059257e-16
-8.9910271e-16
1.2111441e-15
-1.1501181e-15
5.0919195e-16
-8.9905436e-16
7.9532753e-16
-1.1059812e-15
3.157664e-16
-8.8652289e-16
5.1444613e-16
-1.1500688e-15
2.1529784e-16
-8.4297895e-16
3.3231113e-16
-9.3237629e-16
9.8499189e-17
-6.2502306e-16
1.9471766e-16
-7.0666652e-16
4.6663077e-17
-5.766082e-16
9.4321231e-17
-6.4479424e-16
8.7938283e-18
-3.6932318e-16
4.6779645e-17
-5.8952691e-16
-2.3035046e-17
-3.3290931e-16
1.2394867e-17
-3.73742e-16
-3.1932585e-17
-3.0017443e-16
-1.5990543e-17
-3.3249387e-16
-5.4855321e-17
-2.7316426e-16
-2.4829086e-17
-2.9542156e-16
-4.0633963e-17
-8.7305653e-17
-2.7779849e-17
-9.6334419e-17
-3.3069936e-17
-2.3502418e-16
-3.0344421e-17
-7.3524607e-17
-1.8531836e-17
-2.168085e-16
-3.5410221e-17
-5.2226826e-17
-2.0485777e-17
-3.6473093e-17
-2.4393696e-17
-1.9908624e-16
-2.5356963e-17
-1.866553e-16
-1.9022204e-17
-1.9967006e-17
-2.0685449e-17
-3.576188e-18
-2.8554121e-17
-1.1958652e-17
-1.4513911e-17
-6.3631097e-19
-3.2683059e-17
-7.2081138e-18
-1.8864641e-17
-2.4744594e-17
-2.8330431e-17
-3.4920048e-17
-3.4951174e-17
-3.2471329e-17
-3.1338432e-17
-3.391464e-17
1.5813589e-17
1.4295907e-17
1.7357059e-17
-2.7100131e-17
-1.6904351e-11
5.2153673e-11
8.4373683e-11
8.9272791e-11
3.3672599e-11
-1.8620439e-11
6.2175719e-13
-7.2559148e-12
3.7382549e-11
-2.2911618e-11
-1.0294813e-11
-2.3035907e-11
2.8836636e-11
-2.1118953e-11
-1.6104949e-11
-3.0987595e-11
1.6645577e-11
-1.7138077e-11
-1.8939362e-11
-3.157935e-11
6.2630771e-12
-1.2886259e-11
-1.9352818e-11
-2.7843435e-11
-1.7909464e-12
-9.1422434e-12
-1.8256881e-11
-2.2429473e-11
-6.2114874e-12
-6.0117272e-12
-1.6260236e-11
-1.6700991e-11
-7.666255e-12
-3.492291e-12
-1.3842704e-11
-1.1509343e-11
-7.5905736e-12
-1.6222556e-12
-1.1376216e-11
-7.3098794e-12
-6.8420069e-12
-3.183215e-13
-9.0758461e-12
-4.1222834e-12
-5.8932884e-12
5.5855709e-13
-7.0662156e-12
-1.8476296e-12
-4.9421163e-12
1.068041e-12
-5.4113075e-12
-3.5229334e-13
-4.0591516e-12
1.3031109e-12
-4.1075182e-12
5.4191505e-13
-3.2835364e-12
1.3490358e-12
-3.0974979e-12
1.0065904e-12
-2.6062546e-12
1.2778853e-12
-2.3158061e-12
1.1855589e-12
-2.0420595e-12
1.1424468e-12
-1.7214024e-12
1.1874142e-12
-1.5824922e-12
9.7937638e-13
-1.2784982e-12
1.0899465e-12
-1.2145156e-12
8.1287256e-13
-9.4580044e-13
9.4615426e-13
-9.2460073e-13
6.5761176e-13
-6.9509613e-13
7.890577e-13
-6.9914759e-13
5.2025987e-13
-5.119564e-13
6.3783029e-13
-5.2540827e-13
4.0393566e-13
-3.7779402e-13
5.0291241e-13
-3.924736e-13
3.0872199e-13
-2.7833233e-13
3.882418e-13
-2.9142578e-13
2.3237317e-13
-2.0464535e-13
2.9429549e-13
-2.1496711e-13
1.7261206e-13
-1.5008267e-13
2.1988559e-13
-1.5732388e-13
1.2656119e-13
-1.0971454e-13
1.621897e-13
-1.1418405e-13
9.172236e-14
-7.9779422e-14
1.1787702e-13
-8.21017e-14
6.5668459e-14
-5.7593276e-14
8.4420394e-14
-5.8387032e-14
4.6389955e-14
-4.1340595e-14
5.9479918e-14
-4.1042584e-14
3.2393997e-14
-2.9553289e-14
4.1246427e-14
-2.842729e-14
2.2537404e-14
-2.0891185e-14
2.8390969e-14
-1.9355089e-14
1.5307338e-14
-1.4540645e-14
1.9100094e-14
-1.2886036e-14
1.0322826e-14
-9.9509529e-15
1.2658195e-14
-8.3224052e-15
6.8356817e-15
-6.6658441e-15
8.1780918e-15
-5.1717344e-15
4.4431191e-15
-4.3378815e-15
5.1103155e-15
-3.0225237e-15
2.8340419e-15
-2.7051637e-15
3.093708e-15
-1.5969807e-15
1.7441293e-15
-1.6090828e-15
1.7762166e-15
-6.7540364e-16
1.0305789e-15
-8.2851604e-16
8.8766006e-16
-1.1420809e-16
5.8377882e-16
-3.4243983e-16
3.3828517e-16
2.1150487e-16
2.9327928e-16
-1.476351e-17
3.5659665e-18
3.9373711e-16
1.2647941e-16
1.6415742e-16
-1.9012686e-16
4.5819888e-16
1.0806808e-17
2.6764516e-16
-2.6713837e-16
4.5820582e-16
-1.8020313e-17
3.0974719e-16
-3.1275247e-16
4.0944045e-16
-3.2723379e-17
3.3149109e-16
-3.0857722e-16
3.8572044e-16
-2.018315e-16
3.0605942e-16
-2.9538376e-16
3.2699055e-16
-3.3409031e-17
2.7313965e-16
-2.7821129e-16
2.8685411e-16
-2.8356985e-17
2.3665846e-16
-2.631114e-16
2.485996e-16
-2.1836901e-17
1.9926476e-16
-8.09282e-17
1.9331978e-16
-1.8747788e-17
1.6190174e-16
-6.2464592e-17
1.5864509e-16
-1.8379938e-16
1.2610988e-16
-2.1367071e-16
1.3032431e-16
-1.4316591e-17
9.5356536e-17
-3.7948043e-17
1.024267e-16
-8.5311437e-18
6.4517029e-17
-3.0037436e-17
8.2791983e-17
-1.6747919e-18
4.8040436e-17
-2.2942448e-17
5.8652446e-17
6.8774052e-19
4.0515113e-17
-1.4054486e-17
4.4943471e-17
-1.6771947e-16
3.6537974e-17
-4.5609178e-18
2.4455315e-17
3.7671271e-18
2.5124947e-17
4.9153627e-19
1.4695991e-17
1.0412348e-17
-3.9441713e-18
9.379783e-18
-1.3925161e-18
1.8895363e-17
-9.9872446e-18
-3.1910943e-18
-7.9514048e-18
5.938049e-18
9.8153502e-18
3.0984024e-18
5.6041667e-17
8.1007735e-18
1.3116852e-17
-3.9384051e-17
1.4489682e-09
4.9086478e-10
2.5290967e-10
4.1318266e-10
-9.0358175e-10
8.3014024e-11
-5.4860238e-12
1.0229269e-10
-1.021986e-09
-1.5434222e-10
-1.0205509e-10
-1.1673736e-10
-4.5957499e-10
-1.6920857e-10
-8.7072329e-11
-1.3228145e-10
-1.7233137e-10
-1.445128e-10
-5.8322696e-11
-1.1609668e-10
-3.4875305e-11
-1.2251553e-10
-3.8607573e-11
-1.0280264e-10
7.4914063e-12
-1.0663952e-10
-2.8389442e-11
-9.4421252e-11
1.1712457e-11
-9.2485921e-11
-2.3518264e-11
-8.5739462e-11
7.4271661e-12
-7.8188456e-11
-2.0556102e-11
-7.4611112e-11
3.5054573e-12
-6.4441013e-11
-1.8014043e-11
-6.2779146e-11
1.0921033e-12
-5.1772159e-11
-1.5534029e-11
-5.1302222e-11
-1.7610706e-13
-4.049206e-11
-1.3083047e-11
-4.0634783e-11
-7.0638162e-13
-3.1045368e-11
-1.0766087e-11
-3.1454226e-11
-8.0583451e-13
-2.3391607e-11
-8.7053747e-12
-2.3906131e-11
-7.7970416e-13
-1.7375835e-11
-6.9466265e-12
-1.7896387e-11
-7.3599028e-13
-1.2750466e-11
-5.4207792e-12
-1.3224432e-11
-6.5746618e-13
-9.2532982e-12
-4.1275583e-12
-9.6599152e-12
-5.5546607e-13
-6.6503998e-12
-3.1168472e-12
-6.9856869e-12
-4.4836796e-13
-4.7373445e-12
-2.3385033e-12
-5.0055796e-12
-3.4967688e-13
-3.3461193e-12
-1.7301135e-12
-3.5556343e-12
-2.6593589e-13
-2.3450764e-12
-1.2684357e-12
-2.505835e-12
-1.9906577e-13
-1.6318619e-12
-9.2688529e-13
-1.7533084e-12
-1.4905109e-13
-1.1272747e-12
-6.741392e-13
-1.2182516e-12
-1.119987e-13
-7.7302044e-13
-4.8867318e-13
-8.4038657e-13
-8.4631559e-14
-5.2623488e-13
-3.5309886e-13
-5.751681e-13
-6.4333822e-14
-3.5548641e-13
-2.5448169e-13
-3.9020638e-13
-4.9234619e-14
-2.3822505e-13
-1.8311709e-13
-2.6232543e-13
-3.7761675e-14
-1.5844443e-13
-1.317071e-13
-1.7516273e-13
-2.8902592e-14
-1.0424923e-13
-9.4396289e-14
-1.1562032e-13
-2.2341437e-14
-6.7676527e-14
-6.7279034e-14
-7.5256791e-14
-1.7166499e-14
-4.3333114e-14
-4.7856978e-14
-4.8442765e-14
-1.3101907e-14
-2.7216252e-14
-3.3984403e-14
-3.0407667e-14
-9.9229957e-15
-1.6596294e-14
-2.4043687e-14
-1.8548051e-14
-7.469803e-15
-9.7190528e-15
-1.692933e-14
-1.0858677e-14
-5.5614034e-15
-5.3297445e-15
-1.1835326e-14
-5.922949e-15
-4.1142203e-15
-2.5806491e-15
-8.2481376e-15
-2.7824784e-15
-3.0051463e-15
-9.1738138e-16
-5.7171425e-15
-8.6287891e-16
-2.1734848e-15
6.0559288e-17
-3.919325e-15
2.2967921e-16
-1.5387417e-15
5.7965747e-16
-2.6815906e-15
8.1889082e-16
-1.0732252e-15
8.3142552e-16
-1.8211109e-15
1.068842e-15
-7.4059257e-16
8.9910271e-16
-1.2111441e-15
1.1501181e-15
-5.0919194e-16
8.9905443e-16
-7.9532752e-16
1.1059813e-15
-3.157664e-16
8.8652282e-16
-5.1444613e-16
1.1500689e-15
-2.1529783e-16
8.4297893e-16
-3.3231113e-16
9.3237629e-16
-9.8499183e-17
6.250231e-16
-1.9471766e-16
7.0666649e-16
-4.6663077e-17
5.766082e-16
-9.4321228e-17
6.4479422e-16
-8.793828e-18
3.6932318e-16
-4.6779638e-17
5.8952691e-16
2.3035053e-17
3.3290931e-16
-1.239486e-17
3.7374201e-16
3.1932592e-17
3.0017444e-16
1.599055e-17
3.3249387e-16
5.4855328e-17
2.7316426e-16
2.4829093e-17
2.9542156e-16
4.0633965e-17
8.7305646e-17
2.7779849e-17
9.6334425e-17
3.3069933e-17
2.3502418e-16
3.0344415e-17
7.3524614e-17
1.8531838e-17
2.1680851e-16
3.5410221e-17
5.2226829e-17
2.0485779e-17
3.6473095e-17
2.4393703e-17
1.9908623e-16
2.5356965e-17
1.866553e-16
1.9022205e-17
1.9967008e-17
2.0685452e-17
3.5761887e-18
2.8554123e-17
1.1958656e-17
1.4513913e-17
6.3631315e-19
3.268306e-17
7.2081164e-18
1.8864643e-17
2.4744596e-17
2.8330433e-17
3.4920051e-17
3.4951177e-17
3.247133e-17
3.1338434e-17
3.3914643e-17
-1.5813587e-17
-1.4295904e-17
-1.7357055e-17
2.7100136e-17
)
;

boundaryField
{
    movingWall
    {
        type            calculated;
        value           nonuniform List<scalar> 
16
(
-1.1116693e-16
7.8129647e-17
1.1116693e-16
-7.8129644e-17
-1.6160971e-19
5.133438e-17
1.616116e-19
-5.1334375e-17
-1.5041282e-17
7.2814259e-17
1.5041283e-17
-7.2814254e-17
7.0536012e-17
-1.7590908e-17
-7.0536006e-17
1.7590914e-17
)
;
    }
    CPLReceiveMD
    {
        type            calculated;
        value           nonuniform List<scalar> 
16
(
5.0512729e-11
-3.1898687e-09
-5.0512729e-11
3.1898687e-09
-1.1429571e-10
-6.9732522e-10
1.1429571e-10
6.9732522e-10
-1.6275964e-10
-4.2623768e-10
1.6275964e-10
4.2623768e-10
-1.7513526e-10
-5.4159863e-10
1.7513526e-10
5.4159863e-10
)
;
    }
    streamwiseIn
    {
        type            cyclic;
    }
    streamwiseOut
    {
        type            cyclic;
    }
    front
    {
        type            cyclic;
    }
    back
    {
        type            cyclic;
    }
}


// ************************************************************************* //
