/*--------------------------------*- C++ -*----------------------------------*\
| =========                 |                                                 |
| \\      /  F ield         | OpenFOAM: The Open Source CFD Toolbox           |
|  \\    /   O peration     | Version:  3.0.x                                 |
|   \\  /    A nd           | Web:      www.OpenFOAM.org                      |
|    \\/     M anipulation  |                                                 |
\*---------------------------------------------------------------------------*/
FoamFile
{
    version     2.0;
    format      ascii;
    class       volScalarField;
    location    "425";
    object      sigmaxx;
}
// * * * * * * * * * * * * * * * * * * * * * * * * * * * * * * * * * * * * * //

dimensions      [0 2 -2 0 0 0 0];

internalField   nonuniform List<scalar> 
960
(
-3.8406565e-10
-2.5191519e-09
3.1146732e-09
3.4579627e-09
4.6171447e-09
3.456886e-09
-4.534898e-09
-2.7968422e-09
9.0410118e-09
8.8845113e-09
-9.7166179e-09
-8.4277114e-09
1.1011285e-08
1.1358347e-08
-1.128812e-08
-1.1026898e-08
8.1396801e-09
8.2031423e-09
-8.0973892e-09
-7.9954181e-09
9.5569563e-10
1.4121114e-09
-9.2181754e-10
-1.3042809e-09
-3.4744127e-09
-3.9467848e-09
3.4877332e-09
3.9656118e-09
-4.3697421e-09
-5.2985948e-09
4.3526376e-09
5.2457065e-09
-3.0098914e-09
-4.0472053e-09
2.9687188e-09
3.9492198e-09
-1.5850451e-09
-2.8662777e-09
1.5344354e-09
2.7488881e-09
-8.3078307e-10
-1.8887122e-09
7.8120429e-10
1.7689049e-09
-7.6860916e-10
-1.8388595e-09
7.246061e-10
1.7273677e-09
-1.0833541e-09
-2.1904222e-09
1.0460081e-09
2.0927549e-09
-1.6692689e-09
-2.8330055e-09
1.6379392e-09
2.7501267e-09
-2.0061466e-09
-3.4576108e-09
1.9792223e-09
3.3882724e-09
-2.053486e-09
-4.0133433e-09
2.029269e-09
3.9553711e-09
-2.0212649e-09
-3.8147116e-09
1.9987316e-09
3.7658474e-09
-1.6942405e-09
-3.7511494e-09
1.6727685e-09
3.7093922e-09
-1.3109395e-09
-3.3930082e-09
1.2900335e-09
3.3567125e-09
-6.6956876e-10
-2.7597036e-09
6.4898583e-10
2.7276069e-09
-2.3331399e-10
-2.0929189e-09
2.1300366e-10
2.0640803e-09
6.4730789e-10
-1.6317653e-09
-6.6734311e-10
1.6054656e-09
1.2943415e-09
-7.2373112e-10
-1.314096e-09
6.9941092e-10
1.6995631e-09
1.7836552e-10
-1.7190458e-09
-2.011468e-10
2.0800689e-09
8.4739051e-10
-2.0993082e-09
-8.6899644e-10
2.655545e-09
1.5030114e-09
-2.674584e-09
-1.5237415e-09
2.7597904e-09
1.9231467e-09
-2.7786812e-09
-1.9432344e-09
3.0591261e-09
2.7745919e-09
-3.0779269e-09
-2.7942197e-09
3.3327389e-09
2.9493732e-09
-3.3514979e-09
-2.9686814e-09
3.5818781e-09
3.5586385e-09
-3.6006194e-09
-3.5777201e-09
3.1420082e-09
5.4912615e-09
-3.1607378e-09
-5.5101696e-09
5.3428909e-09
3.4219993e-09
-5.361598e-09
-3.440751e-09
3.084319e-09
5.7834728e-09
-3.1029704e-09
-5.8020534e-09
3.024603e-09
5.9175844e-09
-3.0431463e-09
-5.9359553e-09
2.9456594e-09
6.0420566e-09
-2.964029e-09
-6.060162e-09
2.8487367e-09
6.1549118e-09
-2.8668594e-09
-6.1726856e-09
2.7354185e-09
6.253692e-09
-2.7532193e-09
-6.2710653e-09
2.6077335e-09
8.5546872e-09
-2.6251401e-09
-8.5715951e-09
2.4682427e-09
6.3974375e-09
-2.4851888e-09
-6.4138228e-09
1.0097525e-10
6.436027e-09
-1.1740571e-10
-6.4518444e-09
-5.2064111e-11
8.6670772e-09
3.6190317e-11
-8.6822963e-09
-2.0562563e-10
6.429795e-09
1.9033449e-10
-6.4444027e-09
-3.5478398e-10
6.3780782e-09
3.400859e-10
-6.3920784e-09
-4.9415155e-10
6.2893071e-09
4.8004169e-10
-6.302721e-09
-6.1801754e-10
6.1599124e-09
6.0447782e-10
-6.1727789e-09
-7.2054065e-10
5.9862136e-09
7.0754362e-10
-5.9985824e-09
-3.015124e-09
5.7643829e-09
3.0026382e-09
-5.7763104e-09
-3.0582634e-09
5.4904726e-09
3.0462622e-09
-5.5020156e-09
-8.455744e-10
2.9414815e-09
8.3404683e-10
-2.9526863e-09
-3.0314613e-09
3.3320323e-10
3.0204276e-09
-3.440914e-10
-7.386238e-10
-1.1698051e-10
7.2815346e-10
1.0642355e-10
-2.8457499e-09
-6.2636569e-10
2.8359684e-09
6.1620107e-10
-4.8268906e-10
-3.4052218e-09
4.737598e-10
3.3955592e-09
-3.1848105e-10
-3.9942806e-09
3.1072053e-10
3.9852556e-09
-1.5176446e-10
-4.5742505e-09
1.4554799e-10
4.5659631e-09
-5.834472e-12
-9.5244199e-09
1.3662605e-12
9.5168396e-09
9.3051971e-11
-9.8738136e-09
-9.571489e-11
9.8665855e-09
1.1986157e-10
-7.6528958e-09
-1.1976193e-10
7.6450447e-09
7.2689377e-11
-6.9737371e-09
-7.7402604e-11
6.9672405e-09
-4.7251875e-12
-3.8378298e-09
-8.9189233e-12
3.8351154e-09
-1.6616509e-09
-2.5742076e-09
1.9577242e-09
3.1207845e-09
5.8890638e-09
4.3044481e-09
-5.7704867e-09
-3.9670083e-09
9.8344001e-09
8.7585429e-09
-9.7162214e-09
-8.6072891e-09
1.1498293e-08
1.1231594e-08
-1.1291142e-08
-1.1133954e-08
7.974733e-09
8.1961824e-09
-7.7406947e-09
-8.1175062e-09
7.9778306e-10
8.3785588e-10
-6.168881e-10
-7.718148e-10
-3.61728e-09
-4.1881827e-09
3.7175897e-09
4.2200459e-09
-4.2889535e-09
-5.242713e-09
4.314507e-09
5.2326692e-09
-2.9471592e-09
-3.9650759e-09
2.9187109e-09
3.9194015e-09
-1.5501942e-09
-2.568251e-09
1.4902898e-09
2.4999079e-09
-8.2114659e-10
-1.8304037e-09
7.4695853e-10
1.7521154e-09
-5.5430314e-10
-1.5776384e-09
4.7627844e-10
1.4977428e-09
-1.1006298e-09
-2.167124e-09
1.0241625e-09
2.0898556e-09
-1.6908301e-09
-2.8213815e-09
1.6183174e-09
2.7488105e-09
-2.0285165e-09
-3.4538638e-09
1.9607531e-09
3.3866827e-09
-2.2965829e-09
-3.7926412e-09
2.2335378e-09
3.7308065e-09
-2.0403604e-09
-4.0407152e-09
1.9818414e-09
3.9839106e-09
-1.7109743e-09
-3.9786135e-09
1.6567698e-09
3.9264671e-09
-1.3253792e-09
-3.3990687e-09
1.2752071e-09
3.3512301e-09
-6.8193639e-10
-2.7656717e-09
6.3554231e-10
2.7218273e-09
-2.1969189e-11
-2.0984399e-09
-2.0869358e-11
2.0582994e-09
6.3827614e-10
-1.4147207e-09
-6.777804e-10
1.3780027e-09
1.2866074e-09
-7.2784289e-10
-1.323023e-09
6.9425771e-10
1.6929244e-09
1.7503823e-10
-1.726522e-09
-2.0579834e-10
2.0743595e-09
8.4484098e-10
-2.1054291e-09
-8.7309179e-10
2.6506265e-09
1.5012124e-09
-2.6794674e-09
-1.5272729e-09
2.7555447e-09
2.1439651e-09
-2.7824544e-09
-2.168158e-09
3.2773644e-09
2.7741467e-09
-3.3026316e-09
-2.7967772e-09
3.3295509e-09
2.9495169e-09
-3.3534334e-09
-2.970854e-09
3.3571882e-09
3.5593114e-09
-3.379896e-09
-3.5795824e-09
3.1395721e-09
5.4924048e-09
-3.1612785e-09
-5.5117958e-09
3.1216159e-09
3.423558e-09
-3.1424609e-09
-3.4422119e-09
3.0823924e-09
5.7853953e-09
-3.1024758e-09
-5.8034126e-09
3.022857e-09
5.9198211e-09
-3.0422435e-09
-5.9372668e-09
2.9440514e-09
6.0445612e-09
-2.9627785e-09
-6.0614705e-09
2.8472303e-09
6.15764e-09
-2.8653151e-09
-6.1740265e-09
2.7339844e-09
6.2566012e-09
-2.7514293e-09
-6.2724639e-09
2.6063484e-09
8.5577359e-09
-2.6231482e-09
-8.5730642e-09
2.4668877e-09
6.4005844e-09
-2.4830362e-09
-6.4153663e-09
9.9638152e-11
6.4392309e-09
-1.1513173e-10
-6.4534586e-09
-5.3387671e-11
8.6702952e-09
3.8546602e-11
-8.6839685e-09
-2.0693332e-10
6.4329827e-09
1.9273322e-10
-6.4461118e-09
-3.5606662e-10
6.3811878e-09
3.4248528e-10
-6.3937953e-09
-4.9539229e-10
6.2922862e-09
4.8239669e-10
-6.3044073e-09
-6.1919141e-10
6.1627056e-09
6.0673903e-10
-6.1743868e-09
-7.2161378e-10
5.9887576e-09
7.0965588e-10
-6.0000552e-09
-3.0160521e-09
5.7666058e-09
3.0045397e-09
-5.7775788e-09
-8.3987097e-10
5.4922956e-09
8.2876344e-10
-5.5029983e-09
-8.4603436e-10
2.9428158e-09
8.3531121e-10
-2.953286e-09
-8.1245505e-10
2.5530707e-09
8.0213049e-10
-2.5633128e-09
-7.3830646e-10
-1.1692631e-10
7.2844553e-10
1.0695419e-10
-2.8449185e-09
-6.2711334e-10
2.8356522e-09
6.1751722e-10
-4.8127793e-10
-1.1877475e-09
4.7280292e-10
1.1787071e-09
-2.5355807e-09
-3.9968816e-09
2.528141e-09
3.9886263e-09
-1.4920133e-10
-4.577778e-09
1.4298871e-10
4.5705333e-09
-2.9244987e-12
-9.5286426e-09
-2.0380904e-12
9.5225595e-09
9.5956113e-11
-9.8780072e-09
-1.0004316e-10
9.8730551e-09
1.2253778e-10
-7.6543238e-09
-1.264174e-10
7.6496378e-09
7.5340964e-11
-6.9765236e-09
-8.1607831e-11
6.9701235e-09
-1.0374273e-12
-3.8454697e-09
-6.1197483e-12
3.8364165e-09
-2.4029773e-09
-2.7166097e-09
2.3772849e-09
3.3229224e-09
4.9323427e-09
3.1620888e-09
-5.1556674e-09
-3.0225501e-09
9.9602289e-09
8.5909651e-09
-1.007497e-08
-8.6823858e-09
1.1367648e-08
1.1148428e-08
-1.1333655e-08
-1.1233331e-08
8.0005951e-09
8.5113319e-09
-7.8884395e-09
-8.5875065e-09
1.0246583e-09
1.3341987e-09
-9.256172e-10
-1.3982611e-09
-3.4322426e-09
-3.9864122e-09
3.4845164e-09
3.9108901e-09
-4.3424968e-09
-5.3134198e-09
4.3491169e-09
5.2197649e-09
-2.9898701e-09
-4.0481773e-09
2.9658898e-09
3.9410302e-09
-1.5709157e-09
-2.8606541e-09
1.5326639e-09
2.7495936e-09
-8.2167879e-10
-1.8799352e-09
7.8044932e-10
1.7744358e-09
-7.6298652e-10
-1.8292125e-09
7.2467007e-10
1.7350625e-09
-1.0798396e-09
-2.1814e-09
1.0465472e-09
2.1005997e-09
-1.6671518e-09
-2.8251926e-09
1.6386573e-09
2.75722e-09
-2.005066e-09
-3.4512039e-09
1.9800582e-09
3.3942698e-09
-2.0530151e-09
-4.0082697e-09
2.030212e-09
3.960229e-09
-2.0210682e-09
-3.8107961e-09
1.9995969e-09
3.7696622e-09
-1.6941644e-09
-3.7481881e-09
1.6734477e-09
3.7123199e-09
-1.3109174e-09
-3.3907987e-09
1.2905839e-09
3.3589257e-09
-6.6957042e-10
-2.7580724e-09
6.4943813e-10
2.7292596e-09
-2.3332556e-10
-2.0917265e-09
2.1335166e-10
2.0653007e-09
6.4729083e-10
-1.6308996e-09
-6.670812e-10
1.6063597e-09
1.2943223e-09
-7.231052e-10
-1.3138974e-09
7.000627e-10
1.699546e-09
1.7881531e-10
-1.7188959e-09
-2.0067328e-10
2.0800553e-09
8.4771202e-10
-2.0991953e-09
-8.6865379e-10
2.655535e-09
1.5032404e-09
-2.6744995e-09
-1.5234948e-09
2.7597836e-09
1.9233086e-09
-2.7786184e-09
-1.9430589e-09
3.0591223e-09
2.7747057e-09
-3.0778799e-09
-2.7940954e-09
3.3327368e-09
2.9494538e-09
-3.3514622e-09
-2.9685929e-09
3.5818772e-09
3.558695e-09
-3.6005925e-09
-3.5776579e-09
3.1420084e-09
5.4913008e-09
-3.160718e-09
-5.5101258e-09
5.3428918e-09
3.4220269e-09
-5.3615834e-09
-3.4407198e-09
3.0843201e-09
5.7834921e-09
-3.1029595e-09
-5.8020316e-09
3.0246043e-09
5.9175978e-09
-3.0431383e-09
-5.93594e-09
2.9456606e-09
6.042066e-09
-2.9640231e-09
-6.0601512e-09
2.8487377e-09
6.1549183e-09
-2.8668551e-09
-6.1726779e-09
2.7354195e-09
6.2536965e-09
-2.7532161e-09
-6.2710599e-09
2.6077344e-09
8.5546904e-09
-2.6251378e-09
-8.5715914e-09
2.4682435e-09
6.3974396e-09
-2.4851871e-09
-6.4138203e-09
1.0097584e-10
6.4360285e-09
-1.1740447e-10
-6.4518427e-09
-5.2063665e-11
8.6670781e-09
3.6191251e-11
-8.6822951e-09
-2.0562521e-10
6.4297958e-09
1.9033514e-10
-6.4444016e-09
-3.5478366e-10
6.3780789e-09
3.4008637e-10
-6.3920778e-09
-4.9415126e-10
6.2893072e-09
4.8004205e-10
-6.3027212e-09
-6.1801727e-10
6.1599124e-09
6.0447814e-10
-6.1727788e-09
-7.205405e-10
5.9862135e-09
7.0754381e-10
-5.998582e-09
-3.0151238e-09
5.7643827e-09
3.0026383e-09
-5.7763105e-09
-3.0582634e-09
5.4904728e-09
3.0462624e-09
-5.5020158e-09
-8.4557429e-10
2.9414817e-09
8.3404693e-10
-2.9526861e-09
-3.0314613e-09
3.332029e-10
3.0204276e-09
-3.4409167e-10
-7.3862382e-10
-1.1698046e-10
7.2815352e-10
1.0642325e-10
-2.8457499e-09
-6.263652e-10
2.8359685e-09
6.1620115e-10
-4.8268904e-10
-3.4052222e-09
4.7375986e-10
3.3955597e-09
-3.1848099e-10
-3.9942806e-09
3.1072054e-10
3.9852556e-09
-1.5176444e-10
-4.5742505e-09
1.4554802e-10
4.5659627e-09
-5.8344813e-12
-9.5244203e-09
1.3663142e-12
9.5168396e-09
9.3051953e-11
-9.8738136e-09
-9.5714904e-11
9.8665856e-09
1.1986157e-10
-7.6528958e-09
-1.1976193e-10
7.6450447e-09
7.2689399e-11
-6.9737372e-09
-7.74026e-11
6.9672405e-09
-4.7251793e-12
-3.8378299e-09
-8.9188978e-12
3.8351155e-09
-1.7500377e-09
-2.5225576e-09
1.9772754e-09
3.1656491e-09
5.8503161e-09
4.3395741e-09
-5.7261126e-09
-3.9099968e-09
9.849774e-09
8.77317e-09
-9.6666409e-09
-8.5547559e-09
1.1534773e-08
1.1234955e-08
-1.1252953e-08
-1.1099943e-08
8.0137316e-09
8.1930134e-09
-7.7140155e-09
-8.1025965e-09
8.3195039e-10
8.3139482e-10
-5.994836e-10
-7.7058062e-10
-3.5909193e-09
-4.1959206e-09
3.7281728e-09
4.2133627e-09
-4.2720588e-09
-5.2505416e-09
4.3202951e-09
5.2224002e-09
-2.9373712e-09
-3.9721778e-09
2.9213715e-09
3.9085758e-09
-1.5445921e-09
-2.5741868e-09
1.4910594e-09
2.4901211e-09
-8.1791192e-10
-1.8351736e-09
7.4668068e-10
1.7439405e-09
-5.5240785e-10
-1.5813176e-09
4.7554592e-10
1.4913416e-09
-1.0995653e-09
-2.169805e-09
1.0233458e-09
2.0851248e-09
-1.6902924e-09
-2.8232438e-09
1.6175723e-09
2.7454782e-09
-2.0283275e-09
-3.4550964e-09
1.9601031e-09
3.3844377e-09
-2.2966099e-09
-3.7934137e-09
2.2329889e-09
3.7293636e-09
-2.0404891e-09
-4.0411643e-09
1.9814059e-09
3.9830352e-09
-1.7111465e-09
-3.9788449e-09
1.6564322e-09
3.925976e-09
-1.3255599e-09
-3.3991619e-09
1.274939e-09
3.3509885e-09
-6.8210618e-10
-2.7656814e-09
6.3533664e-10
2.7217408e-09
-2.2119679e-11
-2.0984032e-09
-2.1020186e-11
2.0583024e-09
6.3814699e-10
-1.4146634e-09
-6.7789371e-10
1.378052e-09
1.2864988e-09
-7.2777931e-10
-1.3231101e-09
6.9432701e-10
1.6928344e-09
1.7509997e-10
-1.7265892e-09
-2.0572572e-10
2.0742855e-09
8.4489613e-10
-2.1054812e-09
-8.7302464e-10
2.6505661e-09
1.5012592e-09
-2.679508e-09
-1.5272138e-09
2.755496e-09
2.1440034e-09
-2.7824864e-09
-2.168108e-09
3.2773254e-09
2.7741777e-09
-3.3026567e-09
-2.7967361e-09
3.3295199e-09
2.9495412e-09
-3.3534527e-09
-2.9708209e-09
3.3571639e-09
3.5593295e-09
-3.3799111e-09
-3.5795573e-09
3.1395531e-09
5.4924185e-09
-3.1612905e-09
-5.5117769e-09
3.1216012e-09
3.4235685e-09
-3.1424703e-09
-3.4421974e-09
3.0823811e-09
5.7854028e-09
-3.1024832e-09
-5.8034019e-09
3.0228483e-09
5.9198267e-09
-3.0422492e-09
-5.9372589e-09
2.9440449e-09
6.0445652e-09
-2.962783e-09
-6.0614647e-09
2.8472255e-09
6.1576428e-09
-2.8653185e-09
-6.1740224e-09
2.7339808e-09
6.2566032e-09
-2.7514319e-09
-6.2724609e-09
2.6063458e-09
8.5577373e-09
-2.6231502e-09
-8.573062e-09
2.4668858e-09
6.4005854e-09
-2.4830377e-09
-6.4153648e-09
9.9636798e-11
6.4392315e-09
-1.1513284e-10
-6.4534575e-09
-5.3388629e-11
8.6702956e-09
3.8545822e-11
-8.6839678e-09
-2.0693394e-10
6.432983e-09
1.9273265e-10
-6.4461113e-09
-3.5606698e-10
6.3811879e-09
3.4248486e-10
-6.3937949e-09
-4.9539257e-10
6.2922867e-09
4.8239641e-10
-6.304407e-09
-6.1919162e-10
6.1627057e-09
6.0673889e-10
-6.1743866e-09
-7.2161391e-10
5.9887571e-09
7.0965581e-10
-6.000055e-09
-3.0160522e-09
5.7666058e-09
3.0045397e-09
-5.7775791e-09
-8.3987099e-10
5.4922956e-09
8.2876343e-10
-5.5029987e-09
-8.4603435e-10
2.9428162e-09
8.3531123e-10
-2.9532855e-09
-8.1245505e-10
2.5530707e-09
8.0213054e-10
-2.5633128e-09
-7.3830641e-10
-1.1692681e-10
7.2844562e-10
1.0695378e-10
-2.8449185e-09
-6.2711336e-10
2.8356523e-09
6.1751729e-10
-4.8127794e-10
-1.1877476e-09
4.7280294e-10
1.1787072e-09
-2.5355806e-09
-3.9968812e-09
2.528141e-09
3.9886263e-09
-1.4920131e-10
-4.577778e-09
1.4298872e-10
4.5705333e-09
-2.9244779e-12
-9.5286431e-09
-2.0380123e-12
9.5225595e-09
9.5956132e-11
-9.8780072e-09
-1.0004311e-10
9.8730551e-09
1.2253781e-10
-7.6543238e-09
-1.2641738e-10
7.6496379e-09
7.534097e-11
-6.9765236e-09
-8.1607841e-11
6.9701235e-09
-1.0374663e-12
-3.8454698e-09
-6.1196444e-12
3.8364165e-09
)
;

boundaryField
{
    movingWall
    {
        type            calculated;
        value           nonuniform List<scalar> 
16
(
-4.2493466e-11
-3.7856319e-11
-4.2493465e-11
-3.7856357e-11
-3.4792539e-09
-3.4879059e-09
-3.479254e-09
-3.4879059e-09
2.6591558e-11
3.2134119e-11
2.6591597e-11
3.213425e-11
3.4783158e-09
3.4776533e-09
3.4783158e-09
3.4776533e-09
)
;
    }
    CPLReceiveMD
    {
        type            calculated;
        value           nonuniform List<scalar> 
16
(
1.3107639e-10
-2.8702729e-09
-3.8064331e-09
-2.9702118e-09
-3.5637203e-09
-3.691146e-09
-3.8140757e-09
-3.6366478e-09
4.5579894e-09
3.2943963e-09
3.8633619e-09
3.3014358e-09
4.7380412e-09
4.2940546e-09
4.5383094e-09
4.3322216e-09
)
;
    }
    streamwiseIn
    {
        type            cyclic;
    }
    streamwiseOut
    {
        type            cyclic;
    }
    front
    {
        type            cyclic;
    }
    back
    {
        type            cyclic;
    }
}


// ************************************************************************* //
