/*--------------------------------*- C++ -*----------------------------------*\
| =========                 |                                                 |
| \\      /  F ield         | OpenFOAM: The Open Source CFD Toolbox           |
|  \\    /   O peration     | Version:  3.0.x                                 |
|   \\  /    A nd           | Web:      www.OpenFOAM.org                      |
|    \\/     M anipulation  |                                                 |
\*---------------------------------------------------------------------------*/
FoamFile
{
    version     2.0;
    format      ascii;
    class       volScalarField;
    location    "425";
    object      sigmaxy;
}
// * * * * * * * * * * * * * * * * * * * * * * * * * * * * * * * * * * * * * //

dimensions      [0 2 -2 0 0 0 0];

internalField   nonuniform List<scalar> 
960
(
0.029214644
0.029214644
0.029214645
0.02921464
-0.0013146405
-0.0013146158
-0.0013146183
-0.0013146403
-0.0059460569
-0.0059460373
-0.0059460399
-0.005946053
-0.0038970571
-0.0038970527
-0.0038970547
-0.0038970558
-0.0015890479
-0.0015890601
-0.0015890614
-0.0015890472
-0.00021087256
-0.00021088987
-0.00021088974
-0.00021087441
0.00048978834
0.0004897813
0.0004897808
0.0004897852
0.00089918969
0.00089919356
0.00089919365
0.0008991878
0.0012389564
0.0012389641
0.0012389634
0.0012389551
0.0015885986
0.0015886054
0.0015886039
0.0015885985
0.0019583507
0.0019583542
0.0019583532
0.0019583504
0.0023374811
0.0023374814
0.0023374803
0.00233748
0.0027150897
0.0027150882
0.0027150869
0.0027150885
0.0030855962
0.0030855939
0.0030855918
0.0030855948
0.0034483201
0.0034483176
0.0034483147
0.0034483178
0.0038056868
0.0038056847
0.0038056822
0.0038056849
0.0041616136
0.004161612
0.0041616092
0.0041616122
0.0045203905
0.0045203879
0.0045203849
0.0045203882
0.0048860021
0.0048859994
0.0048859968
0.0048859995
0.0052617787
0.0052617759
0.005261773
0.0052617764
0.0056502611
0.0056502584
0.0056502539
0.0056502586
0.0060532056
0.0060532032
0.0060531984
0.0060532028
0.0064716676
0.0064716651
0.0064716613
0.0064716659
0.0069061194
0.0069061162
0.0069061122
0.0069061175
0.0073565664
0.0073565633
0.0073565584
0.0073565635
0.0078226564
0.0078226528
0.0078226478
0.0078226533
0.0083037659
0.0083037628
0.0083037582
0.0083037633
0.0087990687
0.0087990667
0.0087990607
0.008799066
0.0093075761
0.009307574
0.0093075679
0.0093075726
0.0098281638
0.0098281657
0.0098281615
0.0098281656
0.010359611
0.010359612
0.010359601
0.010359605
0.010900569
0.010900567
0.010900562
0.010900564
0.011449591
0.011449589
0.011449591
0.011449593
0.012005158
0.012005157
0.012005153
0.012005154
0.01256562
0.01256562
0.012565616
0.012565616
0.013129232
0.013129233
0.013129229
0.013129228
0.013694165
0.013694173
0.01369417
0.013694168
0.014258503
0.014258512
0.014258503
0.014258507
0.014820232
0.014820236
0.014820227
0.014820237
0.015377259
0.015377263
0.015377269
0.015377264
0.01592745
0.015927448
0.015927454
0.015927442
0.016468585
0.016468591
0.016468584
0.016468585
0.016998432
0.016998439
0.01699844
0.016998433
0.017514726
0.017514733
0.017514735
0.017514728
0.018015202
0.018015216
0.018015212
0.018015211
0.018497606
0.018497607
0.018497618
0.01849761
0.018959693
0.018959695
0.018959706
0.018959698
0.019399298
0.019399306
0.019399305
0.019399297
0.019814292
0.019814294
0.019814293
0.019814292
0.020202636
0.020202644
0.020202644
0.020202643
0.020562407
0.020562415
0.020562422
0.020562414
0.020891782
0.020891783
0.02089179
0.020891783
0.021189071
0.021189071
0.021189078
0.021189064
0.021452727
0.021452727
0.02145274
0.021452727
0.021681385
0.021681383
0.021681382
0.021681384
0.021873827
0.021873825
0.021873823
0.021873825
0.022029024
0.022029028
0.022029038
0.022029028
0.022146164
0.022146166
0.022146175
0.022146166
0.022224612
0.022224613
0.022224621
0.022224613
0.022263939
0.022263939
0.022263959
0.022263939
0.029214638
0.029214641
0.029214641
0.029214633
-0.0013146414
-0.0013146167
-0.0013146175
-0.0013146395
-0.0059460518
-0.0059460347
-0.0059460365
-0.0059460476
-0.0038970545
-0.0038970507
-0.003897052
-0.0038970525
-0.0015890453
-0.0015890589
-0.0015890608
-0.0015890446
-0.00021087249
-0.00021089059
-0.00021089113
-0.00021087501
0.00048978579
0.00048977926
0.00048977939
0.00048978262
0.00089918779
0.00089919285
0.00089919225
0.00089918653
0.0012389558
0.0012389634
0.0012389634
0.0012389544
0.0015885993
0.0015886047
0.0015886045
0.0015885978
0.0019583508
0.0019583548
0.0019583532
0.0019583504
0.0023374811
0.0023374821
0.0023374803
0.0023374807
0.0027150904
0.0027150882
0.0027150869
0.0027150892
0.0030855962
0.0030855939
0.0030855918
0.0030855948
0.0034483194
0.003448317
0.0034483147
0.0034483178
0.0038056868
0.0038056841
0.0038056816
0.0038056843
0.0041616143
0.004161612
0.0041616086
0.0041616115
0.0045203898
0.0045203879
0.0045203849
0.0045203882
0.0048860015
0.0048859994
0.0048859968
0.0048859995
0.0052617787
0.0052617766
0.005261773
0.0052617764
0.0056502604
0.0056502584
0.0056502539
0.0056502586
0.0060532056
0.0060532025
0.0060531984
0.0060532028
0.0064716683
0.0064716651
0.0064716613
0.0064716659
0.0069061195
0.0069061162
0.0069061122
0.0069061175
0.0073565664
0.0073565633
0.0073565584
0.0073565635
0.0078226557
0.0078226528
0.0078226478
0.0078226533
0.0083037659
0.0083037634
0.0083037582
0.0083037633
0.0087990694
0.0087990667
0.0087990607
0.008799066
0.0093075761
0.0093075733
0.0093075679
0.0093075733
0.0098281644
0.0098281663
0.0098281622
0.0098281662
0.010359611
0.010359606
0.010359602
0.010359605
0.010900569
0.010900567
0.010900562
0.010900564
0.011449591
0.011449596
0.011449591
0.011449593
0.012005158
0.012005157
0.012005153
0.012005154
0.01256562
0.01256562
0.012565616
0.012565616
0.013129232
0.013129233
0.013129229
0.013129228
0.013694164
0.013694173
0.01369417
0.013694168
0.014258503
0.014258512
0.014258503
0.014258507
0.014820232
0.014820236
0.014820227
0.014820237
0.015377259
0.015377263
0.015377269
0.015377264
0.01592745
0.015927448
0.015927454
0.015927442
0.016468585
0.016468591
0.016468584
0.016468585
0.016998432
0.016998439
0.01699844
0.016998433
0.017514726
0.017514733
0.017514735
0.017514728
0.018015202
0.018015216
0.018015212
0.018015211
0.018497606
0.018497607
0.018497618
0.01849761
0.018959693
0.018959702
0.018959706
0.018959698
0.019399298
0.019399306
0.019399305
0.019399297
0.019814292
0.019814294
0.0198143
0.019814292
0.020202636
0.020202644
0.020202644
0.020202643
0.020562407
0.020562408
0.020562415
0.020562414
0.020891782
0.020891783
0.020891797
0.020891783
0.021189071
0.021189071
0.021189078
0.021189071
0.021452727
0.021452727
0.021452734
0.021452727
0.021681385
0.021681383
0.021681382
0.021681377
0.021873827
0.021873825
0.021873823
0.021873825
0.022029024
0.022029028
0.022029038
0.022029028
0.022146164
0.022146166
0.022146175
0.022146166
0.022224612
0.022224613
0.022224621
0.022224613
0.022263939
0.022263939
0.022263959
0.022263939
0.029214644
0.029214645
0.029214645
0.029214639
-0.0013146405
-0.0013146176
-0.0013146183
-0.0013146399
-0.0059460569
-0.0059460381
-0.00594604
-0.0059460521
-0.0038970578
-0.0038970534
-0.0038970541
-0.0038970551
-0.0015890479
-0.0015890601
-0.0015890615
-0.0015890472
-0.00021087189
-0.0002108892
-0.00021089041
-0.00021087442
0.00048978835
0.00048978131
0.0004897808
0.00048978519
0.00089918969
0.00089919356
0.00089919365
0.00089918779
0.0012389564
0.0012389641
0.0012389634
0.0012389551
0.0015885986
0.0015886054
0.0015886039
0.0015885985
0.0019583507
0.0019583542
0.0019583532
0.0019583504
0.0023374811
0.0023374814
0.0023374803
0.00233748
0.0027150897
0.0027150882
0.0027150869
0.0027150885
0.0030855962
0.0030855939
0.0030855918
0.0030855948
0.0034483201
0.0034483176
0.0034483147
0.0034483178
0.0038056868
0.0038056847
0.0038056822
0.0038056849
0.0041616136
0.004161612
0.0041616092
0.0041616122
0.0045203905
0.0045203879
0.0045203849
0.0045203882
0.0048860021
0.0048859994
0.0048859968
0.0048859995
0.0052617787
0.0052617759
0.005261773
0.0052617764
0.0056502611
0.0056502584
0.0056502539
0.0056502586
0.0060532056
0.0060532032
0.0060531984
0.0060532028
0.0064716676
0.0064716651
0.0064716613
0.0064716659
0.0069061194
0.0069061162
0.0069061122
0.0069061175
0.0073565664
0.0073565633
0.0073565584
0.0073565635
0.0078226564
0.0078226528
0.0078226478
0.0078226533
0.0083037659
0.0083037628
0.0083037582
0.0083037633
0.0087990687
0.0087990667
0.0087990607
0.008799066
0.0093075761
0.009307574
0.0093075679
0.0093075726
0.0098281638
0.0098281657
0.0098281615
0.0098281656
0.010359611
0.010359612
0.010359601
0.010359605
0.010900569
0.010900567
0.010900562
0.010900564
0.011449591
0.011449589
0.011449591
0.011449593
0.012005158
0.012005157
0.012005153
0.012005154
0.01256562
0.01256562
0.012565616
0.012565616
0.013129232
0.013129233
0.013129229
0.013129228
0.013694165
0.013694173
0.01369417
0.013694168
0.014258503
0.014258512
0.014258503
0.014258507
0.014820232
0.014820236
0.014820227
0.014820237
0.015377259
0.015377263
0.015377269
0.015377264
0.01592745
0.015927448
0.015927454
0.015927442
0.016468585
0.016468591
0.016468584
0.016468585
0.016998432
0.016998439
0.01699844
0.016998433
0.017514726
0.017514733
0.017514735
0.017514728
0.018015202
0.018015216
0.018015212
0.018015211
0.018497606
0.018497607
0.018497618
0.01849761
0.018959693
0.018959695
0.018959706
0.018959698
0.019399298
0.019399306
0.019399305
0.019399297
0.019814292
0.019814294
0.019814293
0.019814292
0.020202636
0.020202644
0.020202644
0.020202643
0.020562407
0.020562415
0.020562422
0.020562414
0.020891782
0.020891783
0.02089179
0.020891783
0.021189071
0.021189071
0.021189078
0.021189064
0.021452727
0.021452727
0.02145274
0.021452727
0.021681385
0.021681383
0.021681382
0.021681384
0.021873827
0.021873825
0.021873823
0.021873825
0.022029024
0.022029028
0.022029038
0.022029028
0.022146164
0.022146166
0.022146175
0.022146166
0.022224612
0.022224613
0.022224621
0.022224613
0.022263939
0.022263939
0.022263959
0.022263939
0.029214638
0.029214641
0.029214641
0.029214633
-0.0013146414
-0.0013146167
-0.0013146175
-0.0013146395
-0.0059460518
-0.0059460347
-0.0059460365
-0.0059460476
-0.0038970545
-0.0038970508
-0.003897052
-0.0038970525
-0.0015890453
-0.0015890589
-0.0015890608
-0.0015890445
-0.00021087248
-0.0002108906
-0.00021089113
-0.00021087499
0.0004897858
0.00048977925
0.00048977939
0.00048978263
0.0008991878
0.00089919285
0.00089919224
0.00089918653
0.0012389558
0.0012389634
0.0012389634
0.0012389544
0.0015885993
0.0015886047
0.0015886045
0.0015885978
0.0019583508
0.0019583548
0.0019583532
0.0019583504
0.0023374811
0.0023374821
0.0023374803
0.0023374807
0.0027150904
0.0027150882
0.0027150869
0.0027150892
0.0030855962
0.0030855939
0.0030855918
0.0030855948
0.0034483194
0.003448317
0.0034483147
0.0034483178
0.0038056868
0.0038056841
0.0038056816
0.0038056843
0.0041616143
0.004161612
0.0041616086
0.0041616115
0.0045203898
0.0045203879
0.0045203849
0.0045203882
0.0048860015
0.0048859994
0.0048859968
0.0048859995
0.0052617787
0.0052617766
0.005261773
0.0052617764
0.0056502604
0.0056502584
0.0056502539
0.0056502586
0.0060532056
0.0060532025
0.0060531984
0.0060532028
0.0064716683
0.0064716651
0.0064716613
0.0064716659
0.0069061195
0.0069061162
0.0069061122
0.0069061175
0.0073565664
0.0073565633
0.0073565584
0.0073565635
0.0078226557
0.0078226528
0.0078226478
0.0078226533
0.0083037659
0.0083037634
0.0083037582
0.0083037633
0.0087990694
0.0087990667
0.0087990607
0.008799066
0.0093075761
0.0093075733
0.0093075679
0.0093075733
0.0098281644
0.0098281663
0.0098281622
0.0098281662
0.010359611
0.010359606
0.010359602
0.010359605
0.010900569
0.010900567
0.010900562
0.010900564
0.011449591
0.011449596
0.011449591
0.011449593
0.012005158
0.012005157
0.012005153
0.012005154
0.01256562
0.01256562
0.012565616
0.012565616
0.013129232
0.013129233
0.013129229
0.013129228
0.013694164
0.013694173
0.01369417
0.013694168
0.014258503
0.014258512
0.014258503
0.014258507
0.014820232
0.014820236
0.014820227
0.014820237
0.015377259
0.015377263
0.015377269
0.015377264
0.01592745
0.015927448
0.015927454
0.015927442
0.016468585
0.016468591
0.016468584
0.016468585
0.016998432
0.016998439
0.01699844
0.016998433
0.017514726
0.017514733
0.017514735
0.017514728
0.018015202
0.018015216
0.018015212
0.018015211
0.018497606
0.018497607
0.018497618
0.01849761
0.018959693
0.018959702
0.018959706
0.018959698
0.019399298
0.019399306
0.019399305
0.019399297
0.019814292
0.019814294
0.0198143
0.019814292
0.020202636
0.020202644
0.020202644
0.020202643
0.020562407
0.020562408
0.020562415
0.020562414
0.020891782
0.020891783
0.020891797
0.020891783
0.021189071
0.021189071
0.021189078
0.021189071
0.021452727
0.021452727
0.021452734
0.021452727
0.021681385
0.021681383
0.021681382
0.021681377
0.021873827
0.021873825
0.021873823
0.021873825
0.022029024
0.022029028
0.022029038
0.022029028
0.022146164
0.022146166
0.022146175
0.022146166
0.022224612
0.022224613
0.022224621
0.022224613
0.022263939
0.022263939
0.022263959
0.022263939
)
;

boundaryField
{
    movingWall
    {
        type            calculated;
        value           nonuniform List<scalar> 
16
(
0.02227378
0.02227378
0.02227378
0.02227378
0.02227378
0.02227378
0.02227378
0.02227378
0.022273807
0.022273807
0.022273807
0.022273807
0.02227378
0.02227378
0.02227378
0.02227378
)
;
    }
    CPLReceiveMD
    {
        type            calculated;
        value           nonuniform List<scalar> 
16
(
0.054455595
0.054455592
0.054455595
0.054455592
0.05445557
0.05445557
0.054455575
0.05445557
0.054455573
0.054455567
0.054455573
0.054455567
0.054455592
0.054455584
0.054455589
0.054455584
)
;
    }
    streamwiseIn
    {
        type            cyclic;
    }
    streamwiseOut
    {
        type            cyclic;
    }
    front
    {
        type            cyclic;
    }
    back
    {
        type            cyclic;
    }
}


// ************************************************************************* //
