/*--------------------------------*- C++ -*----------------------------------*\
| =========                 |                                                 |
| \\      /  F ield         | OpenFOAM: The Open Source CFD Toolbox           |
|  \\    /   O peration     | Version:  3.0.x                                 |
|   \\  /    A nd           | Web:      www.OpenFOAM.org                      |
|    \\/     M anipulation  |                                                 |
\*---------------------------------------------------------------------------*/
FoamFile
{
    version     2.0;
    format      ascii;
    class       volScalarField;
    location    "425";
    object      sigmazz;
}
// * * * * * * * * * * * * * * * * * * * * * * * * * * * * * * * * * * * * * //

dimensions      [0 2 -2 0 0 0 0];

internalField   nonuniform List<scalar> 
960
(
1.3797469e-09
-3.5045005e-11
3.4532489e-10
6.5599524e-10
-9.8568499e-10
-2.0020714e-10
-1.9254025e-11
2.442035e-10
-1.0136207e-09
-3.8275118e-10
-1.6859687e-10
3.1165601e-10
-7.4259487e-10
-5.0626845e-10
2.9391278e-10
4.3038148e-10
-8.3145396e-10
-6.1877889e-10
8.4310835e-10
5.0445179e-10
-6.6731012e-10
-7.2062142e-10
7.0626716e-10
5.6411225e-10
-7.7805941e-10
-7.2921593e-10
7.9419626e-10
5.2869618e-10
-6.8750135e-10
-7.2869322e-10
6.6451625e-10
4.960905e-10
-6.6867683e-10
-7.9053988e-10
6.1573196e-10
5.4821161e-10
-5.8120149e-10
-5.9258107e-10
5.1645301e-10
3.6157164e-10
-4.9597658e-10
-6.0050571e-10
4.3230088e-10
3.931199e-10
-4.3551704e-10
-5.4005968e-10
3.7873947e-10
3.6219169e-10
-4.1819258e-10
-5.5040478e-10
3.6992694e-10
4.0315859e-10
-3.386902e-10
-5.2081216e-10
2.983682e-10
4.0136925e-10
-3.4277425e-10
-4.7479977e-10
3.086477e-10
3.7880258e-10
-3.9004925e-10
-3.6114781e-10
3.6021045e-10
2.8394576e-10
-3.5769887e-10
-4.9269357e-10
3.3085896e-10
4.3009549e-10
-3.633962e-10
-4.2717064e-10
3.3867468e-10
3.7569665e-10
-3.1282621e-10
-4.0048392e-10
2.8950352e-10
3.5737564e-10
-3.3707534e-10
-4.3190704e-10
3.1471425e-10
3.9507516e-10
-2.3359574e-10
-4.3014617e-10
2.1198546e-10
3.9804373e-10
-3.5150692e-10
-3.013618e-10
3.3052579e-10
2.7283134e-10
-3.7015609e-10
-3.9158535e-10
3.4971526e-10
3.6575374e-10
-2.977627e-10
-4.8785436e-10
2.7778303e-10
4.6405847e-10
-2.5009542e-10
-4.8440251e-10
2.3049666e-10
4.6212243e-10
-3.4033335e-10
-4.9440741e-10
3.2103464e-10
4.7323433e-10
-2.360716e-10
-4.0706585e-10
2.1699318e-10
3.8669098e-10
-2.6959144e-10
-5.541753e-10
2.5065553e-10
5.343643e-10
-3.288374e-10
-3.793613e-10
3.0998122e-10
3.5993884e-10
-4.1255918e-10
-4.3581064e-10
3.9374824e-10
4.1666001e-10
-1.8668768e-10
-1.1661181e-09
1.6790826e-10
1.1471701e-09
-1.3144812e-09
9.3308731e-11
1.2957386e-09
-1.1208181e-10
-2.4436973e-10
-8.7389262e-10
2.2569328e-10
8.553022e-10
-3.0408334e-10
-7.3977783e-10
2.8552243e-10
7.2140393e-10
-3.8302529e-10
-6.1530365e-10
3.6464337e-10
5.9719928e-10
-4.7994671e-10
-5.024475e-10
4.6181555e-10
4.8467683e-10
-5.9326391e-10
-4.0366686e-10
5.7545737e-10
3.8629761e-10
-7.2094818e-10
-1.4313518e-09
7.035378e-10
1.4144482e-09
-8.6043851e-10
-2.599214e-10
8.4348996e-10
2.4354006e-10
1.0097469e-10
-2.2133195e-10
-1.1740669e-10
2.055182e-10
-5.2064434e-11
-1.3189624e-09
3.6189737e-11
1.3037463e-09
-2.0562579e-10
-2.2756443e-10
1.9033415e-10
2.1295935e-10
-3.5478402e-10
-2.7928137e-10
3.4008574e-10
2.6528347e-10
-4.9415152e-10
-3.6805271e-10
4.8004164e-10
3.5464061e-10
-6.1801746e-10
-4.974475e-10
6.0447784e-10
4.8458249e-10
-7.2054052e-10
-6.7114646e-10
7.0754364e-10
6.5877882e-10
3.1355644e-10
-8.9297737e-10
-3.2604202e-10
8.8105076e-10
2.7041693e-10
-1.1668877e-09
-2.8241798e-10
1.1553454e-09
-8.455743e-10
-3.8719855e-10
8.3404692e-10
3.7599428e-10
2.9721901e-10
3.3320339e-10
-3.0825263e-10
-3.4409115e-10
-7.3862372e-10
-1.1698044e-10
7.2815355e-10
1.0642372e-10
4.829304e-10
-6.2636562e-10
-4.927118e-10
6.1620119e-10
-4.8268901e-10
-7.6541481e-11
4.7375991e-10
6.687896e-11
-3.1848096e-10
-6.6560027e-10
3.1072059e-10
6.5657533e-10
-1.5176438e-10
-1.2455702e-09
1.4554805e-10
1.2372828e-09
-5.8344331e-12
4.6162103e-10
1.3663476e-12
-4.6920128e-10
9.3052003e-11
1.1222723e-10
-9.5714852e-11
-1.1945539e-10
1.198616e-10
-9.9553526e-10
-1.1976191e-10
9.8768416e-10
7.2689382e-11
-3.1637651e-10
-7.7402599e-11
3.0987992e-10
-4.7252069e-12
-5.0914959e-10
-8.9189405e-12
5.0643514e-10
-1.2182683e-11
4.5123268e-10
3.3392101e-10
1.6930858e-10
-4.4616961e-10
-3.2945543e-10
5.9660873e-10
7.3960914e-10
-1.5389463e-10
-5.4205905e-10
3.1003941e-10
7.5505022e-10
-4.7862554e-10
-7.3847483e-10
7.2851499e-10
8.8327954e-10
-6.6791637e-10
-7.8342674e-10
9.4559128e-10
8.9508097e-10
-5.188993e-10
-4.8975264e-10
7.4138607e-10
5.7687662e-10
-6.0629764e-10
-5.2557923e-10
7.4382672e-10
5.6922543e-10
-6.1347814e-10
-5.8339707e-10
6.7066619e-10
5.7828978e-10
-6.0504577e-10
-6.3839989e-10
6.0256492e-10
5.929865e-10
-5.4154852e-10
-5.736546e-10
5.0245546e-10
5.0265463e-10
-4.8009264e-10
-5.0176753e-10
4.2229998e-10
4.1921213e-10
-5.4773231e-10
-5.8182037e-10
4.8247309e-10
4.9700417e-10
-4.2969509e-10
-5.053503e-10
3.6306848e-10
4.231424e-10
-3.5528977e-10
-4.9356233e-10
2.9030601e-10
4.164136e-10
-3.6103104e-10
-4.5996753e-10
2.9897951e-10
3.8876432e-10
-2.9696588e-10
-4.6554185e-10
2.3822573e-10
4.0030899e-10
-3.741908e-10
-3.8044081e-10
3.1889878e-10
3.2085159e-10
-3.7812341e-10
-3.1807103e-10
3.263256e-10
2.6369904e-10
-3.2574324e-10
-4.0403675e-10
2.7735625e-10
3.5445633e-10
-3.4830132e-10
-4.3619121e-10
3.0322593e-10
3.9100844e-10
-3.5427082e-10
-4.3454798e-10
3.1240221e-10
3.933958e-10
-3.599127e-10
-4.1644943e-10
3.2111792e-10
3.7897791e-10
-3.7743067e-10
-3.9521898e-10
3.4153082e-10
3.6108017e-10
-3.0406589e-10
-4.908747e-10
2.7084062e-10
4.597131e-10
-2.5556108e-10
-4.867578e-10
2.2475802e-10
4.582195e-10
-3.4507587e-10
-4.9608544e-10
3.1642393e-10
4.6982175e-10
-2.4019109e-10
-5.1904183e-10
2.1341366e-10
4.9470734e-10
-3.8413147e-10
-5.5457688e-10
3.5895565e-10
5.3184919e-10
-3.3196218e-10
-3.7919295e-10
3.0814177e-10
3.5779005e-10
-3.0433702e-10
-4.3512479e-10
2.8167046e-10
4.1481012e-10
-1.8909351e-10
-1.1649689e-09
1.6741367e-10
1.1455495e-09
-2.070555e-10
9.4869126e-11
1.8622701e-10
-1.1354108e-10
-2.4628289e-10
-8.7197076e-10
2.2620911e-10
8.5394243e-10
-3.0582088e-10
-7.3754286e-10
2.8643937e-10
7.200907e-10
-3.8462808e-10
-6.1280134e-10
3.6590297e-10
5.9588867e-10
-4.8145012e-10
-4.9972176e-10
4.6336553e-10
4.8333366e-10
-5.9469658e-10
-4.0076e-10
5.7725082e-10
3.8489683e-10
-7.2233282e-10
-1.4283053e-09
7.0553156e-10
1.4129771e-09
-8.6179364e-10
-2.5677622e-10
8.4564347e-10
2.4199487e-10
9.9637178e-11
-2.1812966e-10
-1.151324e-10
2.039026e-10
-5.3388579e-11
-1.3157456e-09
3.8545941e-11
1.3020729e-09
-2.0693412e-10
-2.2437775e-10
1.9273263e-10
2.1124933e-10
-3.560673e-10
-2.7617267e-10
3.4248478e-10
2.6356577e-10
-4.9539284e-10
-3.6507436e-10
4.8239627e-10
3.5295371e-10
-6.1919186e-10
-4.9465489e-10
6.0673869e-10
4.8297406e-10
-7.2161414e-10
-6.6860301e-10
7.0965561e-10
6.5730564e-10
3.1262792e-10
-8.9075483e-10
-3.2414078e-10
8.7978195e-10
-8.398712e-10
-1.165065e-09
8.2876329e-10
1.1543624e-09
-8.4603454e-10
-3.8586451e-10
8.3531111e-10
3.7539442e-10
-8.1245518e-10
-7.7560959e-10
8.0213043e-10
7.6536757e-10
-7.3830652e-10
-1.1692637e-10
7.2844549e-10
1.0695424e-10
4.8376169e-10
-6.2711337e-10
-4.9302809e-10
6.1751729e-10
-4.8127801e-10
-1.1877476e-09
4.7280291e-10
1.1787072e-09
7.9309962e-10
-6.6820132e-10
-8.0053933e-10
6.5994601e-10
-1.4920131e-10
-1.2490977e-09
1.4298872e-10
1.241853e-09
-2.9245138e-12
4.5739825e-10
-2.0380765e-12
-4.6348142e-10
9.5956096e-11
1.080337e-10
-1.0004319e-10
-1.1298579e-10
1.2253776e-10
-9.9696322e-10
-1.2641739e-10
9.9227728e-10
7.5340936e-11
-3.19163e-10
-8.1607834e-11
3.1276294e-10
-1.0374924e-12
-5.1678943e-10
-6.1197129e-12
5.0773623e-10
1.6049456e-10
1.2517187e-10
8.1934878e-10
7.9900147e-10
5.491315e-10
1.6182131e-10
3.1472955e-10
5.9376478e-10
3.756476e-10
-1.1664609e-10
1.6222714e-11
5.5312039e-10
-1.7923418e-10
-2.8771868e-10
3.8507369e-10
6.1015127e-10
-6.7027639e-10
-6.4162054e-10
8.1306853e-10
8.8749719e-10
-6.810163e-10
-5.2748484e-10
7.7497839e-10
7.2776212e-10
-8.0270743e-10
-5.4662053e-10
8.5216484e-10
6.9044512e-10
-7.0164093e-10
-5.6301663e-10
7.1414157e-10
6.4907608e-10
-6.7093228e-10
-6.4748212e-10
6.5872423e-10
6.8467774e-10
-5.7755111e-10
-4.7419838e-10
5.5343811e-10
4.7675761e-10
-4.9074923e-10
-5.0519739e-10
4.6361667e-10
4.8727661e-10
-4.3034258e-10
-4.6506806e-10
4.0480065e-10
4.3729423e-10
-4.1352902e-10
-4.927371e-10
3.9115625e-10
4.6151578e-10
-3.347863e-10
-4.7723354e-10
3.1528408e-10
4.4582502e-10
-3.3975804e-10
-4.4239041e-10
3.2195249e-10
4.1211504e-10
-3.8777149e-10
-3.3736852e-10
3.7059029e-10
3.0855774e-10
-3.5595398e-10
-4.7545351e-10
3.3878929e-10
4.480535e-10
-3.6206442e-10
-4.1480628e-10
3.445973e-10
3.8865485e-10
-3.118225e-10
-3.9169841e-10
2.9390576e-10
3.6663806e-10
-3.3632778e-10
-4.2571648e-10
3.1797366e-10
4.0163894e-10
-2.3304381e-10
-4.25819e-10
2.1436987e-10
4.0265704e-10
-3.5110253e-10
-2.9835881e-10
3.3225808e-10
2.7604974e-10
-3.6986044e-10
-3.895149e-10
3.5097168e-10
3.6798382e-10
-2.9754457e-10
-4.8643693e-10
2.7869157e-10
4.6559356e-10
-2.4993278e-10
-4.8343921e-10
2.3115221e-10
4.631716e-10
-3.4021112e-10
-4.937572e-10
3.2150639e-10
4.7394575e-10
-2.3597892e-10
-4.0663126e-10
2.1733171e-10
3.8716822e-10
-2.6952069e-10
-5.5388773e-10
2.5089824e-10
5.3468115e-10
-3.2878351e-10
-3.7917236e-10
3.1015531e-10
3.6014747e-10
-4.1251824e-10
-4.3568853e-10
3.9387262e-10
4.1679471e-10
-1.8665636e-10
-1.1660408e-09
1.6799656e-10
1.1472557e-09
-1.3144574e-09
9.3356809e-11
1.2958011e-09
-1.1202836e-10
-2.443518e-10
-8.7386362e-10
2.2573743e-10
8.5533405e-10
-3.0406996e-10
-7.3976125e-10
2.8555356e-10
7.2142196e-10
-3.8301541e-10
-6.1529489e-10
3.6466514e-10
5.9720865e-10
-4.7993951e-10
-5.0244357e-10
4.618306e-10
4.8468082e-10
-5.9325873e-10
-4.0366579e-10
5.7546779e-10
3.8629835e-10
-7.2094449e-10
-1.4313524e-09
7.0354492e-10
1.4144471e-09
-8.6043593e-10
-2.5992279e-10
8.4349472e-10
2.4353803e-10
1.0097641e-10
-2.2133374e-10
-1.1740348e-10
2.0551583e-10
-5.2063343e-11
-1.3189642e-09
3.619185e-11
1.303744e-09
-2.0562505e-10
-2.2756597e-10
1.9033548e-10
2.1295749e-10
-3.5478361e-10
-2.7928263e-10
3.4008653e-10
2.6528158e-10
-4.9415129e-10
-3.6805421e-10
4.800421e-10
3.5463837e-10
-6.1801734e-10
-4.9744879e-10
6.0447812e-10
4.8458096e-10
-7.2054056e-10
-6.7114757e-10
7.0754376e-10
6.5877795e-10
3.1355639e-10
-8.9297832e-10
-3.2604205e-10
8.8104965e-10
2.7041685e-10
-1.1668881e-09
-2.8241802e-10
1.1553444e-09
-8.4557439e-10
-3.8719885e-10
8.3404684e-10
3.7599389e-10
2.972189e-10
3.3320273e-10
-3.0825274e-10
-3.4409189e-10
-7.3862385e-10
-1.1698058e-10
7.2815344e-10
1.0642305e-10
4.8293029e-10
-6.2636528e-10
-4.9271189e-10
6.1620103e-10
-4.826891e-10
-7.6541968e-11
4.7375979e-10
6.6879283e-11
-3.1848104e-10
-6.6560029e-10
3.1072048e-10
6.5657524e-10
-1.5176445e-10
-1.2455702e-09
1.4554797e-10
1.2372823e-09
-5.8345201e-12
4.6162059e-10
1.3662643e-12
-4.6920133e-10
9.3051921e-11
1.1222729e-10
-9.5714942e-11
-1.1945541e-10
1.1986155e-10
-9.9553521e-10
-1.19762e-10
9.8768412e-10
7.2689394e-11
-3.1637654e-10
-7.7402605e-11
3.0987984e-10
-4.7251599e-12
-5.0914961e-10
-8.9188806e-12
5.0643513e-10
-7.0825534e-11
4.4362665e-10
2.7239826e-10
1.2550056e-10
-4.6343567e-10
-3.4682728e-10
5.5577712e-10
7.0369056e-10
-1.3401306e-10
-5.6683765e-10
2.7918002e-10
7.2351451e-10
-4.5480633e-10
-7.6147443e-10
6.9388851e-10
8.4932069e-10
-6.5275651e-10
-8.0225111e-10
9.0883603e-10
8.5968999e-10
-5.1431149e-10
-5.0394089e-10
7.0518646e-10
5.4367219e-10
-6.1027713e-10
-5.3542743e-10
7.1031121e-10
5.4108656e-10
-6.2443756e-10
-5.8955269e-10
6.4103931e-10
5.5647481e-10
-6.1933213e-10
-6.4149329e-10
5.7736505e-10
5.7763013e-10
-5.5602967e-10
-5.7436679e-10
4.8168551e-10
4.9295803e-10
-4.9322981e-10
-5.0086554e-10
4.0560317e-10
4.1389955e-10
-5.5897868e-10
-5.7992746e-10
4.6935126e-10
4.9487203e-10
-4.3902789e-10
-5.0289844e-10
3.5296766e-10
4.2315773e-10
-3.6288851e-10
-4.9091062e-10
2.8263947e-10
4.1772267e-10
-3.6713266e-10
-4.5736809e-10
2.9319633e-10
3.9073148e-10
-3.0181056e-10
-4.6315241e-10
2.3388452e-10
4.025006e-10
-3.7797847e-10
-3.7834201e-10
3.1566822e-10
3.2299756e-10
-3.8105318e-10
-3.162907e-10
3.2393217e-10
2.6564743e-10
-3.2798767e-10
-4.0256933e-10
2.7558168e-10
3.5613777e-10
-3.5000519e-10
-4.3500942e-10
3.0191696e-10
3.9240727e-10
-3.555541e-10
-4.3361475e-10
3.114443e-10
3.9452573e-10
-3.6087235e-10
-4.1572644e-10
3.2041614e-10
3.7986861e-10
-3.7814344e-10
-3.9466716e-10
3.4101632e-10
3.6176849e-10
-3.0459165e-10
-4.9045922e-10
2.7046455e-10
4.6023496e-10
-2.5594631e-10
-4.8644934e-10
2.2448414e-10
4.5860832e-10
-3.4535598e-10
-4.9585939e-10
3.1622523e-10
4.7010787e-10
-2.4039284e-10
-5.1887814e-10
2.1327009e-10
4.9491512e-10
-3.8427538e-10
-5.5445927e-10
3.5885272e-10
5.3199817e-10
-3.3206368e-10
-3.7910954e-10
3.0806879e-10
3.5789561e-10
-3.0440761e-10
-4.3506704e-10
2.8161916e-10
4.1488287e-10
-1.8914185e-10
-1.1649289e-09
1.6737787e-10
1.145599e-09
-2.0708795e-10
9.4896773e-11
1.8620243e-10
-1.1350764e-10
-2.463042e-10
-8.7195232e-10
2.2619258e-10
8.5396427e-10
-3.058344e-10
-7.3753058e-10
2.8642854e-10
7.2010475e-10
-3.8463623e-10
-6.1279338e-10
3.6589614e-10
5.9589732e-10
-4.8145468e-10
-4.9971668e-10
4.6336152e-10
4.8333864e-10
-5.9469882e-10
-4.007568e-10
5.7724861e-10
3.8489958e-10
-7.2233356e-10
-1.4283034e-09
7.0553054e-10
1.4129784e-09
-8.6179349e-10
-2.5677515e-10
8.4564325e-10
2.4199527e-10
9.9637772e-11
-2.1812907e-10
-1.1513217e-10
2.039025e-10
-5.338774e-11
-1.3157453e-09
3.8546445e-11
1.3020725e-09
-2.0693317e-10
-2.2437769e-10
1.9273324e-10
2.1124884e-10
-3.5606632e-10
-2.7617278e-10
3.4248536e-10
2.6356528e-10
-4.9539202e-10
-3.6507401e-10
4.8239683e-10
3.5295321e-10
-6.1919117e-10
-4.9465495e-10
6.0673923e-10
4.8297367e-10
-7.2161351e-10
-6.6860347e-10
7.0965604e-10
6.5730533e-10
3.1262841e-10
-8.9075485e-10
-3.2414043e-10
8.7978125e-10
-8.3987076e-10
-1.165065e-09
8.2876357e-10
1.1543618e-09
-8.4603418e-10
-3.8586406e-10
8.3531133e-10
3.7539473e-10
-8.1245492e-10
-7.7560957e-10
8.021306e-10
7.6536748e-10
-7.3830632e-10
-1.1692675e-10
7.2844562e-10
1.0695373e-10
4.8376183e-10
-6.2711333e-10
-4.9302799e-10
6.1751722e-10
-4.812779e-10
-1.1877475e-09
4.7280294e-10
1.1787071e-09
7.930997e-10
-6.6820085e-10
-8.0053933e-10
6.5994601e-10
-1.4920125e-10
-1.2490977e-09
1.4298872e-10
1.241853e-09
-2.9244629e-12
4.5739787e-10
-2.0380634e-12
-4.6348142e-10
9.5956149e-11
1.0803374e-10
-1.0004316e-10
-1.1298575e-10
1.2253783e-10
-9.9696312e-10
-1.2641742e-10
9.9227724e-10
7.5340998e-11
-3.1916297e-10
-8.1607837e-11
3.1276288e-10
-1.0374384e-12
-5.1678947e-10
-6.1196798e-12
5.077362e-10
)
;

boundaryField
{
    movingWall
    {
        type            calculated;
        value           nonuniform List<scalar> 
16
(
-4.2493486e-11
-3.7856384e-11
-4.2493446e-11
-3.7856329e-11
-1.5057363e-10
-1.5922562e-10
-1.5057364e-10
-1.5922564e-10
2.659154e-11
3.2134154e-11
2.6591614e-11
3.2134215e-11
1.4963548e-10
1.4897302e-10
1.4963548e-10
1.4897297e-10
)
;
    }
    CPLReceiveMD
    {
        type            calculated;
        value           nonuniform List<scalar> 
16
(
1.894889e-09
-1.2208047e-09
-1.2429613e-09
-1.2909997e-09
-1.0796133e-09
-6.6570565e-10
-9.7229416e-10
-6.7046357e-10
1.7886411e-09
1.6705932e-09
2.3054258e-09
1.5965587e-09
1.9360737e-09
1.3425786e-09
2.0143884e-09
1.292073e-09
)
;
    }
    streamwiseIn
    {
        type            cyclic;
    }
    streamwiseOut
    {
        type            cyclic;
    }
    front
    {
        type            cyclic;
    }
    back
    {
        type            cyclic;
    }
}


// ************************************************************************* //
