/*--------------------------------*- C++ -*----------------------------------*\
| =========                 |                                                 |
| \\      /  F ield         | OpenFOAM: The Open Source CFD Toolbox           |
|  \\    /   O peration     | Version:  3.0.x                                 |
|   \\  /    A nd           | Web:      www.OpenFOAM.org                      |
|    \\/     M anipulation  |                                                 |
\*---------------------------------------------------------------------------*/
FoamFile
{
    version     2.0;
    format      ascii;
    class       volScalarField;
    location    "425";
    object      sigmayy;
}
// * * * * * * * * * * * * * * * * * * * * * * * * * * * * * * * * * * * * * //

dimensions      [0 2 -2 0 0 0 0];

internalField   nonuniform List<scalar> 
960
(
-9.9568126e-10
2.554197e-09
-3.4599981e-09
-4.113958e-09
-3.6314597e-09
-3.2566788e-09
4.554152e-09
2.5526387e-09
-8.0273911e-09
-8.5017601e-09
9.8852148e-09
8.1160554e-09
-1.026869e-08
-1.0852078e-08
1.0994208e-08
1.0596517e-08
-7.3082262e-09
-7.5843634e-09
7.2542808e-09
7.4909663e-09
-2.8838551e-10
-6.9148995e-10
2.1555038e-10
7.4016861e-10
4.2524721e-09
4.6760008e-09
-4.2819295e-09
-4.4943079e-09
5.0572435e-09
6.0272881e-09
-5.0171538e-09
-5.741797e-09
3.6785682e-09
4.8377451e-09
-3.5844508e-09
-4.4974314e-09
2.1662466e-09
3.4588588e-09
-2.0508884e-09
-3.1104597e-09
1.3267597e-09
2.4892179e-09
-1.2135052e-09
-2.1620248e-09
1.2041262e-09
2.3789192e-09
-1.1033456e-09
-2.0895594e-09
1.5015467e-09
2.740827e-09
-1.4159351e-09
-2.4959135e-09
2.0079591e-09
3.3538177e-09
-1.9363074e-09
-3.151496e-09
2.3489208e-09
3.9324106e-09
-2.28787e-09
-3.7670749e-09
2.4435352e-09
4.3744911e-09
-2.3894794e-09
-4.2393169e-09
2.3789638e-09
4.3074052e-09
-2.3295906e-09
-4.1959429e-09
2.0576367e-09
4.17832e-09
-2.0114432e-09
-4.0850888e-09
1.6237657e-09
3.7934921e-09
-1.579537e-09
-3.7140881e-09
1.0066441e-09
3.1916106e-09
-9.6370008e-10
-3.1226821e-09
4.6690973e-10
2.5230651e-09
-4.2498912e-10
-2.4621241e-09
-2.9580097e-10
1.9331271e-09
3.3681732e-10
-1.878297e-09
-9.2418537e-10
1.1153165e-09
9.6438071e-10
-1.0651647e-09
-1.4018004e-09
3.0948884e-10
1.4412628e-09
-2.6291167e-10
-1.8299735e-09
-3.62988e-10
1.8688116e-09
4.06874e-10
-2.3152117e-09
-1.0086039e-09
2.3535494e-09
1.0505071e-09
-2.5237188e-09
-1.5160809e-09
2.5616881e-09
1.5565434e-09
-2.7895347e-09
-2.2204166e-09
2.8272714e-09
2.2598554e-09
-3.0039015e-09
-2.5700119e-09
3.0415167e-09
2.6087426e-09
-3.1693189e-09
-3.1228279e-09
3.2068711e-09
3.16106e-09
-2.9553205e-09
-4.3251433e-09
2.9928295e-09
4.3629994e-09
-4.0284097e-09
-3.515308e-09
4.0658594e-09
3.5528328e-09
-2.8399492e-09
-4.9095802e-09
2.8772771e-09
4.9467512e-09
-2.7205197e-09
-5.1778065e-09
2.7576239e-09
5.2145514e-09
-2.5626341e-09
-5.426753e-09
2.5993856e-09
5.4629628e-09
-2.3687899e-09
-5.6524643e-09
2.4050438e-09
5.6880088e-09
-2.1421546e-09
-5.8500252e-09
2.1777619e-09
5.8847677e-09
-1.8867853e-09
-7.1233354e-09
1.9216023e-09
7.1571469e-09
-1.6078042e-09
-6.1375161e-09
1.6416988e-09
6.1702827e-09
-2.0194994e-10
-6.2146951e-09
2.348124e-10
6.2463262e-09
1.0412854e-10
-7.3481148e-09
-7.2380054e-11
7.37855e-09
4.1125142e-10
-6.2022305e-09
-3.8066863e-10
6.2314434e-09
7.09568e-10
-6.0987969e-09
-6.8017164e-10
6.1267949e-09
9.8830307e-10
-5.9212544e-09
-9.6008333e-10
5.9480804e-09
1.236035e-09
-5.6624649e-09
-1.2089557e-09
5.6881964e-09
1.4410812e-09
-5.3150672e-09
-1.4150873e-09
5.3398036e-09
2.7015675e-09
-4.8714055e-09
-2.6765962e-09
4.8952596e-09
2.7878465e-09
-4.3235848e-09
-2.7638442e-09
4.3466702e-09
1.6911487e-09
-2.554283e-09
-1.6680937e-09
2.576692e-09
2.7342423e-09
-6.6640662e-10
-2.712175e-09
6.8818255e-10
1.4772475e-09
2.3396095e-10
-1.456307e-09
-2.1284727e-10
2.3628195e-09
1.2527313e-09
-2.3432566e-09
-1.2324023e-09
9.6537807e-10
3.4817633e-09
-9.4751971e-10
-3.4624382e-09
6.3696202e-10
4.6598808e-09
-6.2144112e-10
-4.6418309e-09
3.0352884e-10
5.8198207e-09
-2.9109604e-10
-5.8032459e-09
1.1668905e-11
9.0627988e-09
-2.7326081e-12
-9.0476383e-09
-1.8610397e-10
9.7615864e-09
1.9142974e-10
-9.7471301e-09
-2.3972317e-10
8.6484311e-09
2.3952384e-10
-8.6327289e-09
-1.4537876e-10
7.2901136e-09
1.548052e-10
-7.2771204e-09
9.4503944e-12
4.3469794e-09
1.7837864e-11
-4.3415506e-09
1.6738335e-09
2.122975e-09
-2.2916452e-09
-3.2900931e-09
-5.4428942e-09
-3.9749926e-09
5.173878e-09
3.2273992e-09
-9.6805055e-09
-8.2164839e-09
9.406182e-09
7.8522388e-09
-1.1019668e-08
-1.0493119e-08
1.0562627e-08
1.0250675e-08
-7.3068167e-09
-7.4127556e-09
6.7951034e-09
7.2224252e-09
-2.7888376e-10
-3.4810324e-10
-1.2449796e-10
1.9493818e-10
4.2235777e-09
4.7137619e-09
-4.4614164e-09
-4.7892714e-09
4.9024317e-09
5.8261101e-09
-4.9851732e-09
-5.810959e-09
3.5522049e-09
4.6034758e-09
-3.5212758e-09
-4.512388e-09
2.0917427e-09
3.1419056e-09
-1.9927452e-09
-3.0025625e-09
1.3012392e-09
2.3321713e-09
-1.1692585e-09
-2.1713276e-09
1.1020355e-09
2.1594588e-09
-9.5875153e-10
-1.994747e-09
1.5303249e-09
2.6724743e-09
-1.387231e-09
-2.512998e-09
2.0461199e-09
3.3149439e-09
-1.9086234e-09
-3.1652241e-09
2.3895475e-09
3.9138313e-09
-2.2597326e-09
-3.775447e-09
2.5935488e-09
4.258183e-09
-2.4717635e-09
-4.1311155e-09
2.4145512e-09
4.421156e-09
-2.3007401e-09
-4.3047622e-09
2.0890977e-09
4.2966845e-09
-1.9830954e-09
-4.1901661e-09
1.6511224e-09
3.8031055e-09
-1.5525633e-09
-3.7056864e-09
1.0302377e-09
3.2018629e-09
-9.3876825e-10
-3.1128357e-09
3.7624001e-10
2.5329878e-09
-2.9153285e-10
-2.4516952e-09
-2.7836344e-10
1.8311701e-09
3.5666248e-10
-1.7569806e-09
-9.0917669e-10
1.1230619e-09
9.8149219e-10
-1.0553379e-09
-1.3888585e-09
3.1583647e-10
1.4556813e-09
-2.5391476e-10
-1.8187984e-09
-3.5808319e-10
1.8806711e-09
4.1487229e-10
-2.3055507e-09
-1.0051269e-09
2.3630434e-09
1.0574511e-09
-2.5153536e-09
-1.6249232e-09
2.5690407e-09
1.6734507e-09
-2.8932329e-09
-2.2195698e-09
2.9436759e-09
2.264928e-09
-2.9975887e-09
-2.5703239e-09
3.0452916e-09
2.613064e-09
-3.0528511e-09
-3.1241867e-09
3.0982255e-09
3.1647723e-09
-2.9504786e-09
-4.3274359e-09
2.9938649e-09
4.3662463e-09
-2.9145604e-09
-3.5184271e-09
2.9562338e-09
3.555753e-09
-2.8361095e-09
-4.9134245e-09
2.8762667e-09
4.9494701e-09
-2.7170361e-09
-5.1822783e-09
2.7558041e-09
5.2171761e-09
-2.5594233e-09
-5.4317599e-09
2.5968755e-09
5.4655818e-09
-2.3657802e-09
-5.6579182e-09
2.4019496e-09
5.6906928e-09
-2.1392878e-09
-5.8558412e-09
2.1741785e-09
5.887567e-09
-1.8840156e-09
-7.1294306e-09
1.9176167e-09
7.1600871e-09
-1.605094e-09
-6.1438082e-09
1.6373927e-09
6.1733714e-09
-1.9927533e-10
-6.2211013e-09
2.3026413e-10
6.249556e-09
1.0677625e-10
-7.3545496e-09
-7.7092543e-11
7.3818956e-09
4.1386745e-10
-6.208605e-09
-3.8546585e-10
6.2348624e-09
7.1213391e-10
-6.1050152e-09
-6.8497006e-10
6.1302295e-09
9.9078513e-10
-5.9272118e-09
-9.6479296e-10
5.9514536e-09
1.2383833e-09
-5.6680508e-09
-1.2134777e-09
5.6914128e-09
1.4432279e-09
-5.3201546e-09
-1.4193115e-09
5.3427495e-09
2.7034242e-09
-4.8758509e-09
-2.6803989e-09
4.8977969e-09
1.6797422e-09
-4.3272307e-09
-1.6575267e-09
4.3486359e-09
1.6920689e-09
-2.5569513e-09
-1.6706223e-09
2.5778916e-09
1.6249102e-09
-1.7774611e-09
-1.6042609e-09
1.7979452e-09
1.476613e-09
2.3385268e-10
-1.456891e-09
-2.1390843e-10
2.3611568e-09
1.2542267e-09
-2.3426241e-09
-1.2350345e-09
9.6255593e-10
2.3754951e-09
-9.4560583e-10
-2.3574143e-09
1.742481e-09
4.6650829e-09
-1.7276016e-09
-4.6485723e-09
2.9840264e-10
5.8268757e-09
-2.8597743e-10
-5.8123862e-09
5.8490125e-12
9.0712444e-09
4.076167e-12
-9.059078e-09
-1.9191221e-10
9.7699735e-09
2.0008635e-10
-9.7600693e-09
-2.4507554e-10
8.651287e-09
2.5283479e-10
-8.6419151e-09
-1.506819e-10
7.2956866e-09
1.6321567e-10
-7.2828865e-09
2.0749197e-12
4.3622591e-09
1.2239461e-11
-4.3441527e-09
2.2424827e-09
2.5914378e-09
-3.1966337e-09
-4.1219239e-09
-5.4814742e-09
-3.3239101e-09
4.8409378e-09
2.4287853e-09
-1.0335876e-08
-8.474319e-09
1.0058747e-08
8.1292654e-09
-1.1188414e-08
-1.086071e-08
1.0948582e-08
1.062318e-08
-7.3303187e-09
-7.8697114e-09
7.075371e-09
7.7000094e-09
-3.4364196e-10
-8.0671388e-10
1.506388e-10
6.7049901e-10
4.23495e-09
4.5330328e-09
-4.3366812e-09
-4.6013353e-09
5.0441377e-09
5.8764365e-09
-5.0632584e-09
-5.868841e-09
3.6608024e-09
4.6956595e-09
-3.624614e-09
-4.6257079e-09
2.1484668e-09
3.3348525e-09
-2.086102e-09
-3.2263512e-09
1.312428e-09
2.3851325e-09
-1.244066e-09
-2.2617124e-09
1.1933291e-09
2.2942805e-09
-1.1294707e-09
-2.1723567e-09
1.4933686e-09
2.6741371e-09
-1.4377034e-09
-2.5621155e-09
2.0019381e-09
3.3024261e-09
-1.9539414e-09
-3.203045e-09
2.3448241e-09
3.8935943e-09
-2.3020107e-09
-3.8063849e-09
2.4407866e-09
4.3456382e-09
-2.4008023e-09
-4.2687868e-09
2.3770222e-09
4.2862496e-09
-2.3383862e-09
-4.2177157e-09
2.0562288e-09
4.1629944e-09
-2.018045e-09
-4.1009748e-09
1.6227399e-09
3.7824971e-09
-1.5844897e-09
-3.7255638e-09
1.0058982e-09
3.1837888e-09
-9.6741179e-10
-3.1308985e-09
4.6636937e-10
2.5175455e-09
-4.2772153e-10
-2.4679578e-09
-2.9618831e-10
1.9292584e-09
3.3482312e-10
-1.8824094e-09
-9.2446186e-10
1.1126201e-09
9.629257e-10
-1.0680465e-09
-1.4020014e-09
3.0762162e-10
1.4402044e-09
-2.6492028e-10
-1.8301225e-09
-3.6427281e-10
1.8680431e-09
4.0548219e-10
-2.3153239e-09
-1.0094832e-09
2.3529931e-09
1.0495491e-09
-2.5238047e-09
-1.5166773e-09
2.5612867e-09
1.5558906e-09
-2.7896016e-09
-2.220818e-09
2.8269817e-09
2.2594143e-09
-3.0039533e-09
-2.5702814e-09
3.0413069e-09
2.6084454e-09
-3.1693589e-09
-3.1230065e-09
3.2067199e-09
3.1608632e-09
-2.955352e-09
-4.3252599e-09
2.9927214e-09
4.3628701e-09
-4.0284344e-09
-3.5153837e-09
4.0657823e-09
3.5527481e-09
-2.8399683e-09
-4.9096285e-09
2.8772221e-09
4.9466975e-09
-2.7205343e-09
-5.1778365e-09
2.7575847e-09
5.2145181e-09
-2.5626451e-09
-5.4267711e-09
2.5993579e-09
5.4629426e-09
-2.3687982e-09
-5.6524747e-09
2.4050245e-09
5.6879971e-09
-2.1421607e-09
-5.8500307e-09
2.1777483e-09
5.8847616e-09
-1.8867899e-09
-7.123338e-09
1.9215929e-09
7.1571442e-09
-1.6078075e-09
-6.1375168e-09
1.6416924e-09
6.1702823e-09
-2.0195225e-10
-6.2146947e-09
2.3480796e-10
6.2463269e-09
1.0412701e-10
-7.3481139e-09
-7.2383102e-11
7.3785512e-09
4.1125026e-10
-6.2022298e-09
-3.8067062e-10
6.2314441e-09
7.0956727e-10
-6.0987963e-09
-6.801729e-10
6.1267962e-09
9.8830256e-10
-5.921253e-09
-9.6008415e-10
5.9480829e-09
1.2360346e-09
-5.6624636e-09
-1.2089563e-09
5.6881978e-09
1.4410811e-09
-5.3150659e-09
-1.4150876e-09
5.339804e-09
2.7015674e-09
-4.8714044e-09
-2.6765963e-09
4.8952608e-09
2.7878465e-09
-4.3235846e-09
-2.7638444e-09
4.3466713e-09
1.6911487e-09
-2.5542828e-09
-1.6680938e-09
2.5766922e-09
2.7342424e-09
-6.6640563e-10
-2.7121749e-09
6.8818356e-10
1.4772477e-09
2.3396104e-10
-1.456307e-09
-2.128463e-10
2.3628196e-09
1.2527305e-09
-2.3432566e-09
-1.2324022e-09
9.6537815e-10
3.4817642e-09
-9.4751965e-10
-3.462439e-09
6.3696202e-10
4.6598809e-09
-6.2144102e-10
-4.6418309e-09
3.0352888e-10
5.8198207e-09
-2.9109599e-10
-5.803245e-09
1.1669001e-11
9.0627997e-09
-2.7325784e-12
-9.0476383e-09
-1.8610387e-10
9.7615863e-09
1.9142985e-10
-9.7471301e-09
-2.3972313e-10
8.648431e-09
2.3952393e-10
-8.6327289e-09
-1.4537879e-10
7.2901137e-09
1.548052e-10
-7.2771203e-09
9.4503392e-12
4.3469795e-09
1.7837778e-11
-4.3415506e-09
1.8208632e-09
2.0789309e-09
-2.2496737e-09
-3.2911497e-09
-5.3868804e-09
-3.9927468e-09
5.1703354e-09
3.2063063e-09
-9.7157609e-09
-8.2063324e-09
9.3874609e-09
7.8312414e-09
-1.1079967e-08
-1.047348e-08
1.0559064e-08
1.0250623e-08
-7.3609751e-09
-7.3907623e-09
6.8051795e-09
7.2429065e-09
-3.176389e-10
-3.2745393e-10
-1.0570286e-10
2.2690843e-10
4.2011964e-09
4.731348e-09
-4.438484e-09
-4.7544493e-09
4.8964964e-09
5.8400943e-09
-4.9613344e-09
-5.778875e-09
3.5567033e-09
4.6136711e-09
-3.4987365e-09
-4.4862059e-09
2.1006218e-09
3.1485536e-09
-1.9727449e-09
-2.9830791e-09
1.3111417e-09
2.3360391e-09
-1.1522839e-09
-2.15784e-09
1.1113865e-09
2.1612451e-09
-9.4489718e-10
-1.9862136e-09
1.5385932e-09
2.6727035e-09
-1.3763134e-09
-2.5082825e-09
2.0531809e-09
3.3141545e-09
-1.9002118e-09
-3.1632009e-09
2.3954602e-09
3.9124644e-09
-2.2532994e-09
-3.7751692e-09
2.5984204e-09
4.2565661e-09
-2.4668734e-09
-4.1318642e-09
2.4184676e-09
4.4195063e-09
-2.2970742e-09
-4.3060327e-09
2.0921997e-09
4.2951356e-09
-1.9803643e-09
-4.1916235e-09
1.6535476e-09
3.8017312e-09
-1.5505207e-09
-3.7071263e-09
1.0321114e-09
3.2006908e-09
-9.372536e-10
-3.1141481e-09
3.7767378e-10
2.5320179e-09
-2.9042411e-10
-2.4528282e-09
-2.7727464e-10
1.8303898e-09
3.5747756e-10
-1.7579206e-09
-9.0835538e-10
1.1224465e-09
9.8209382e-10
-1.0560955e-09
-1.3882428e-09
3.1535925e-10
1.4561247e-09
-2.5450924e-10
-1.8183392e-09
-3.584468e-10
1.880997e-09
4.1441632e-10
-2.3052102e-09
-1.0053998e-09
2.3632828e-09
1.057106e-09
-2.5151031e-09
-1.6251253e-09
2.5692163e-09
1.6731929e-09
-2.89305e-09
-2.2197185e-09
2.943804e-09
2.2647379e-09
-2.9974563e-09
-2.5704317e-09
3.0453839e-09
2.6129253e-09
-3.0527562e-09
-3.1242624e-09
3.0982919e-09
3.1646745e-09
-2.9504113e-09
-4.3274896e-09
2.9939126e-09
4.366178e-09
-2.9145133e-09
-3.5184653e-09
2.9562679e-09
3.5557051e-09
-2.8360769e-09
-4.9134505e-09
2.8762906e-09
4.9494377e-09
-2.7170139e-09
-5.1822961e-09
2.7558207e-09
5.2171542e-09
-2.5594087e-09
-5.4317718e-09
2.5968868e-09
5.4655674e-09
-2.3657708e-09
-5.6579261e-09
2.4019569e-09
5.6906838e-09
-2.139282e-09
-5.8558464e-09
2.1741833e-09
5.8875613e-09
-1.8840122e-09
-7.1294339e-09
1.9176197e-09
7.1600836e-09
-1.6050923e-09
-6.1438102e-09
1.6373944e-09
6.1733695e-09
-1.9927457e-10
-6.2211025e-09
2.3026501e-10
6.249555e-09
1.0677637e-10
-7.3545503e-09
-7.7092267e-11
7.3818952e-09
4.1386711e-10
-6.2086053e-09
-3.8546589e-10
6.2348624e-09
7.121333e-10
-6.1050151e-09
-6.8497022e-10
6.1302296e-09
9.9078459e-10
-5.9272127e-09
-9.6479325e-10
5.9514538e-09
1.2383828e-09
-5.6680507e-09
-1.2134781e-09
5.6914129e-09
1.4432274e-09
-5.3201537e-09
-1.4193119e-09
5.3427497e-09
2.7034238e-09
-4.8758509e-09
-2.6803992e-09
4.8977979e-09
1.6797418e-09
-4.3272307e-09
-1.657527e-09
4.3486369e-09
1.6920685e-09
-2.5569522e-09
-1.6706226e-09
2.5778907e-09
1.62491e-09
-1.7774612e-09
-1.6042611e-09
1.7979453e-09
1.4766127e-09
2.3385357e-10
-1.4568912e-09
-2.1390751e-10
2.3611567e-09
1.2542267e-09
-2.3426243e-09
-1.2350345e-09
9.6255584e-10
2.3754951e-09
-9.4560588e-10
-2.3574143e-09
1.7424809e-09
4.665082e-09
-1.7276016e-09
-4.6485723e-09
2.9840256e-10
5.8268757e-09
-2.8597744e-10
-5.8123862e-09
5.8489408e-12
9.0712452e-09
4.0760757e-12
-9.059078e-09
-1.9191228e-10
9.7699734e-09
2.0008627e-10
-9.7600694e-09
-2.4507565e-10
8.6512869e-09
2.528348e-10
-8.6419151e-09
-1.5068197e-10
7.2956866e-09
1.6321568e-10
-7.2828864e-09
2.0749048e-12
4.3622593e-09
1.2239324e-11
-4.3441527e-09
)
;

boundaryField
{
    movingWall
    {
        type            calculated;
        value           nonuniform List<scalar> 
16
(
8.4986952e-11
7.5712703e-11
8.4986911e-11
7.5712687e-11
3.6298275e-09
3.6471315e-09
3.6298276e-09
3.6471316e-09
-5.3183098e-11
-6.4268273e-11
-5.3183212e-11
-6.4268465e-11
-3.6279513e-09
-3.6266263e-09
-3.6279513e-09
-3.6266263e-09
)
;
    }
    CPLReceiveMD
    {
        type            calculated;
        value           nonuniform List<scalar> 
16
(
-2.0259653e-09
4.0910777e-09
5.0493944e-09
4.2612115e-09
4.6433336e-09
4.3568516e-09
4.7863699e-09
4.3071114e-09
-6.3466306e-09
-4.9649895e-09
-6.1687877e-09
-4.8979945e-09
-6.6741149e-09
-5.6366332e-09
-6.5526978e-09
-5.6242947e-09
)
;
    }
    streamwiseIn
    {
        type            cyclic;
    }
    streamwiseOut
    {
        type            cyclic;
    }
    front
    {
        type            cyclic;
    }
    back
    {
        type            cyclic;
    }
}


// ************************************************************************* //
