/*--------------------------------*- C++ -*----------------------------------*\
| =========                 |                                                 |
| \\      /  F ield         | OpenFOAM: The Open Source CFD Toolbox           |
|  \\    /   O peration     | Version:  3.0.x                                 |
|   \\  /    A nd           | Web:      www.OpenFOAM.org                      |
|    \\/     M anipulation  |                                                 |
\*---------------------------------------------------------------------------*/
FoamFile
{
    version     2.0;
    format      ascii;
    class       volScalarField;
    location    "450";
    object      sigmayz;
}
// * * * * * * * * * * * * * * * * * * * * * * * * * * * * * * * * * * * * * //

dimensions      [0 2 -2 0 0 0 0];

internalField   nonuniform List<scalar> 
960
(
5.8309635e-12
3.6341169e-12
-1.776777e-11
6.8007796e-13
-6.231433e-12
3.6629474e-12
-1.7634156e-12
1.6071185e-12
-1.1588748e-11
3.9605548e-12
-6.2824132e-15
4.8003954e-12
-1.1536885e-11
3.4769672e-12
1.9886839e-12
6.29785e-12
-8.9332443e-12
1.9222503e-12
2.6902166e-12
5.1447043e-12
-5.7039723e-12
6.0369602e-13
2.5535822e-12
3.7888651e-12
-3.0262724e-12
-3.4110076e-13
2.6743575e-12
2.2421722e-12
-1.0881375e-12
-1.0097998e-12
2.7597437e-12
7.3705972e-13
2.8358208e-13
-1.4852942e-12
2.6696072e-12
-4.1723396e-13
1.1643452e-12
-1.7977038e-12
2.4456246e-12
-1.2610914e-12
1.7551702e-12
-1.9489169e-12
2.2275584e-12
-1.8248012e-12
2.3595977e-12
-1.9504855e-12
2.1849633e-12
-2.1093393e-12
2.70268e-12
-1.850113e-12
2.1728783e-12
-2.2197952e-12
2.596622e-12
-1.6956133e-12
1.9909582e-12
-2.1970585e-12
2.3661672e-12
-1.5050203e-12
1.7309751e-12
-2.0410342e-12
2.0894053e-12
-1.3032794e-12
1.4735413e-12
-1.8249221e-12
1.7955592e-12
-1.1025876e-12
1.233112e-12
-1.5840251e-12
1.5095055e-12
-9.1147992e-13
1.0168622e-12
-1.3408964e-12
1.2458585e-12
-7.4034139e-13
8.2742062e-13
-1.1109228e-12
1.0119887e-12
-5.9249396e-13
6.6483507e-13
-9.0338428e-13
8.1037796e-13
-4.6741508e-13
5.2792441e-13
-7.2303806e-13
6.4080211e-13
-3.6378141e-13
4.1439502e-13
-5.704042e-13
5.0035002e-13
-2.799758e-13
3.2167246e-13
-4.4405814e-13
3.8571163e-13
-2.1268073e-13
2.4686247e-13
-3.4113518e-13
2.9390787e-13
-1.5956115e-13
1.8708371e-13
-2.5895995e-13
2.2159882e-13
-1.1825969e-13
1.3991509e-13
-1.9416959e-13
1.6516806e-13
-8.6789052e-14
1.030607e-13
-1.4395923e-13
1.2165488e-13
-6.2926093e-14
7.4792593e-14
-1.0580552e-13
8.8554337e-14
-4.4586498e-14
5.3509112e-14
-7.6648733e-14
6.3622532e-14
-3.0940606e-14
3.764893e-14
-5.4972316e-14
4.5050576e-14
-2.0990137e-14
2.5955146e-14
-3.8939232e-14
3.1393364e-14
-1.3915668e-14
1.7439492e-14
-2.7042312e-14
2.1431482e-14
-8.7175719e-15
1.1344502e-14
-1.8513334e-14
1.4299611e-14
-5.2592126e-15
7.0652756e-15
-1.2322381e-14
9.2235563e-15
-2.8460081e-15
4.0827551e-15
-7.9602183e-15
5.6967955e-15
-1.2705349e-15
2.032681e-15
-4.9542613e-15
3.3099226e-15
-2.6726537e-16
7.1381022e-16
-2.8988465e-15
1.6706854e-15
3.5431969e-16
-2.5987658e-17
-1.528199e-15
6.4641264e-16
6.9052175e-16
-4.2975778e-16
-6.3405958e-16
-1.5084094e-17
8.3560344e-16
-7.1579613e-16
-7.4693095e-17
-5.3996719e-16
9.3801935e-16
-7.5739951e-16
1.1918254e-16
-6.3736117e-16
9.1989797e-16
-7.5373899e-16
3.6930257e-16
-6.7285412e-16
8.8044781e-16
-8.9158161e-16
4.0229026e-16
-6.705986e-16
6.6400879e-16
-6.7967071e-16
4.031976e-16
-6.4703932e-16
4.4737028e-16
-5.7359351e-16
3.8197532e-16
-5.624124e-16
5.6292027e-16
-4.6724725e-16
3.5239637e-16
-5.0962465e-16
5.1357157e-16
-3.4753675e-16
3.2252587e-16
-4.2635358e-16
3.0746845e-16
-2.4915172e-16
1.2430042e-16
-3.535126e-16
2.7166115e-16
-1.9483077e-16
9.4269626e-17
-2.6271335e-16
2.4122389e-16
-1.3639023e-16
2.3752849e-16
-2.0066718e-16
4.9979378e-17
-7.8845386e-17
5.3330507e-17
-1.616443e-16
3.1389071e-17
-4.1318389e-17
4.2547576e-17
-1.3090213e-16
1.8290901e-17
-1.8314764e-17
2.078064e-16
-9.2672068e-17
6.9461276e-18
-1.0155154e-17
3.856901e-17
-8.5308981e-17
6.338396e-19
1.1013178e-17
3.2382024e-17
-5.971564e-17
1.1440614e-18
1.3358598e-17
2.4491104e-17
-4.5634955e-17
4.1344068e-18
2.0160935e-17
3.8827328e-18
-1.1244578e-17
7.285455e-18
3.3982881e-17
-3.6994873e-17
6.8804483e-17
-2.9773579e-17
3.9131402e-17
-8.4380603e-17
7.3774607e-18
-5.6890563e-17
1.7069661e-17
-4.736439e-17
-1.160063e-09
-2.6690842e-10
-1.1880214e-10
-2.4615299e-10
1.410239e-09
4.5855453e-11
-1.4132781e-11
4.3473487e-11
1.0334734e-09
1.2785239e-10
1.3049489e-11
1.1978913e-10
6.7544421e-10
1.3125707e-10
2.3401667e-11
1.1874911e-10
5.0272819e-10
1.2177504e-10
3.5571554e-11
1.0995856e-10
4.0718135e-10
1.1721509e-10
4.6259061e-11
1.0666782e-10
3.3239984e-10
1.1063494e-10
5.295802e-11
1.0211221e-10
2.6868606e-10
9.9848659e-11
5.5074098e-11
9.4174672e-11
2.1382387e-10
8.6533803e-11
5.3454355e-11
8.3258448e-11
1.6783749e-10
7.2740905e-11
4.9418217e-11
7.0874662e-11
1.3050263e-10
5.9797703e-11
4.4119238e-11
5.8711392e-11
1.0051209e-10
4.8328912e-11
3.8265434e-11
4.789367e-11
7.6425916e-11
3.8557707e-11
3.2269487e-11
3.8736048e-11
5.7464305e-11
3.0497112e-11
2.654598e-11
3.0876116e-11
4.2907766e-11
2.3967905e-11
2.1433916e-11
2.4180015e-11
3.186548e-11
1.8684985e-11
1.7070538e-11
1.8735371e-11
2.3563877e-11
1.4398011e-11
1.3442124e-11
1.4404598e-11
1.737321e-11
1.0984158e-11
1.0487495e-11
1.100839e-11
1.2789143e-11
8.342681e-12
8.1234703e-12
8.3720601e-12
9.4107022e-12
6.3166889e-12
6.2569772e-12
6.344121e-12
6.9270351e-12
4.7701799e-12
4.7979886e-12
4.7939239e-12
5.1031496e-12
3.5946627e-12
3.6663579e-12
3.6139495e-12
3.7632559e-12
2.7039459e-12
2.7936901e-12
2.7189136e-12
2.7785249e-12
2.0303428e-12
2.1238429e-12
2.0416554e-12
2.0541587e-12
1.521689e-12
1.612165e-12
1.5303923e-12
1.5202159e-12
1.1387525e-12
1.2222873e-12
1.14526e-12
1.1264486e-12
8.5382326e-13
9.2591775e-13
8.5571295e-13
8.3584619e-13
6.4198684e-13
7.0079962e-13
6.3864041e-13
6.2093968e-13
4.8103204e-13
5.2943859e-13
4.7584886e-13
4.6164942e-13
3.5914436e-13
3.9953813e-13
3.5412016e-13
3.4340763e-13
2.6749439e-13
3.0121924e-13
2.631269e-13
2.5557887e-13
1.9827549e-13
2.268746e-13
1.9534126e-13
1.903204e-13
1.4652332e-13
1.706901e-13
1.451497e-13
1.4178088e-13
1.0809372e-13
1.2833386e-13
1.0769855e-13
1.0567435e-13
7.9617297e-14
9.6410524e-14
7.9619943e-14
7.8772549e-14
5.8569221e-14
7.2390772e-14
5.8659947e-14
5.8919753e-14
4.3040667e-14
5.4179953e-14
4.3114955e-14
4.3790109e-14
3.1604332e-14
4.071185e-14
3.166475e-14
3.2727386e-14
2.3193729e-14
3.0602579e-14
2.3217862e-14
2.4413395e-14
1.6999146e-14
2.2763902e-14
1.7024754e-14
1.8320611e-14
1.2408611e-14
1.7047741e-14
1.2593238e-14
1.3676506e-14
9.2391506e-15
1.271885e-14
9.256282e-15
1.0281163e-14
6.685778e-15
9.4311641e-15
6.6996335e-15
7.4865741e-15
4.7952782e-15
7.216145e-15
4.9707375e-15
5.7014289e-15
3.6434662e-15
5.2733597e-15
3.6460857e-15
4.2608677e-15
2.6660996e-15
3.9075756e-15
2.6657115e-15
3.1649517e-15
1.9876633e-15
2.8968557e-15
1.9820301e-15
2.3393706e-15
1.4058871e-15
2.1146086e-15
1.3924237e-15
1.7322982e-15
1.2236154e-15
1.5614976e-15
1.039824e-15
1.2690842e-15
7.5390419e-16
1.1149567e-15
9.023421e-16
9.3337951e-16
6.4844313e-16
8.0482842e-16
6.3600048e-16
6.6959602e-16
5.6816532e-16
5.7434141e-16
5.6050925e-16
4.727938e-16
3.4283596e-16
4.1592337e-16
3.3247651e-16
3.2916417e-16
2.9794816e-16
2.9556968e-16
2.8576483e-16
2.174257e-16
2.6324801e-16
2.1521947e-16
8.4694549e-17
1.5415998e-16
2.422083e-16
1.7957152e-16
5.8631092e-17
1.1342538e-16
2.3593317e-16
1.3904829e-16
5.2327643e-17
5.933766e-17
1.133225e-16
7.3884915e-17
1.0186043e-16
1.4996555e-18
1.0529332e-16
2.0259494e-17
1.1141948e-16
4.5332321e-17
1.3017998e-16
1.9351313e-17
9.4866581e-17
-5.8309635e-12
-3.6341169e-12
1.776777e-11
-6.8007796e-13
6.2314329e-12
-3.6629474e-12
1.7634156e-12
-1.6071185e-12
1.1588747e-11
-3.9605548e-12
6.2824132e-15
-4.8003954e-12
1.1536885e-11
-3.4769672e-12
-1.9886839e-12
-6.29785e-12
8.9332443e-12
-1.9222503e-12
-2.6902166e-12
-5.1447043e-12
5.7039723e-12
-6.0369602e-13
-2.5535822e-12
-3.7888651e-12
3.0262724e-12
3.4110076e-13
-2.6743575e-12
-2.2421722e-12
1.0881375e-12
1.0097999e-12
-2.7597437e-12
-7.3705972e-13
-2.8358208e-13
1.4852942e-12
-2.6696072e-12
4.1723396e-13
-1.1643452e-12
1.7977038e-12
-2.4456246e-12
1.2610914e-12
-1.7551702e-12
1.9489169e-12
-2.2275583e-12
1.8248012e-12
-2.3595977e-12
1.9504855e-12
-2.1849633e-12
2.1093393e-12
-2.70268e-12
1.850113e-12
-2.1728784e-12
2.2197952e-12
-2.596622e-12
1.6956134e-12
-1.9909582e-12
2.1970585e-12
-2.3661672e-12
1.5050203e-12
-1.7309751e-12
2.0410342e-12
-2.0894053e-12
1.3032794e-12
-1.4735413e-12
1.8249221e-12
-1.7955592e-12
1.1025876e-12
-1.233112e-12
1.5840251e-12
-1.5095055e-12
9.1147992e-13
-1.0168622e-12
1.3408965e-12
-1.2458585e-12
7.4034139e-13
-8.2742062e-13
1.1109228e-12
-1.0119887e-12
5.9249396e-13
-6.6483507e-13
9.0338421e-13
-8.1037796e-13
4.6741507e-13
-5.279244e-13
7.2303807e-13
-6.4080211e-13
3.6378141e-13
-4.1439502e-13
5.704042e-13
-5.0035002e-13
2.799758e-13
-3.2167247e-13
4.4405813e-13
-3.8571163e-13
2.1268073e-13
-2.4686247e-13
3.4113518e-13
-2.9390786e-13
1.5956115e-13
-1.8708371e-13
2.5895995e-13
-2.2159882e-13
1.1825969e-13
-1.3991509e-13
1.9416959e-13
-1.6516807e-13
8.6789053e-14
-1.030607e-13
1.4395923e-13
-1.2165489e-13
6.2926093e-14
-7.4792592e-14
1.0580552e-13
-8.8554337e-14
4.4586498e-14
-5.3509112e-14
7.6648734e-14
-6.3622532e-14
3.0940605e-14
-3.764893e-14
5.4972316e-14
-4.5050576e-14
2.0990136e-14
-2.5955146e-14
3.8939232e-14
-3.1393364e-14
1.3915668e-14
-1.7439493e-14
2.7042311e-14
-2.1431482e-14
8.7175718e-15
-1.1344502e-14
1.8513334e-14
-1.4299611e-14
5.2592125e-15
-7.0652757e-15
1.2322381e-14
-9.2235564e-15
2.8460081e-15
-4.0827551e-15
7.9602182e-15
-5.6967956e-15
1.2705348e-15
-2.0326811e-15
4.9542613e-15
-3.3099226e-15
2.6726537e-16
-7.1381022e-16
2.8988465e-15
-1.6706854e-15
-3.5431969e-16
2.5987592e-17
1.528199e-15
-6.4641264e-16
-6.9052182e-16
4.2975778e-16
6.3405958e-16
1.5084028e-17
-8.3560344e-16
7.1579619e-16
7.4693095e-17
5.3996719e-16
-9.3801928e-16
7.5739951e-16
-1.1918261e-16
6.3736117e-16
-9.1989797e-16
7.5373899e-16
-3.6930259e-16
6.7285406e-16
-8.8044784e-16
8.9158158e-16
-4.0229022e-16
6.7059867e-16
-6.6400881e-16
6.7967069e-16
-4.031976e-16
6.4703935e-16
-4.4737028e-16
5.7359352e-16
-3.8197532e-16
5.6241238e-16
-5.6292026e-16
4.6724724e-16
-3.5239637e-16
5.0962466e-16
-5.1357157e-16
3.4753675e-16
-3.2252587e-16
4.2635358e-16
-3.0746845e-16
2.4915172e-16
-1.2430041e-16
3.535126e-16
-2.7166114e-16
1.9483078e-16
-9.4269623e-17
2.6271335e-16
-2.4122389e-16
1.3639023e-16
-2.3752848e-16
2.0066719e-16
-4.9979371e-17
7.8845389e-17
-5.3330502e-17
1.6164431e-16
-3.138907e-17
4.1318391e-17
-4.2547572e-17
1.3090213e-16
-1.8290899e-17
1.8314767e-17
-2.078064e-16
9.2672072e-17
-6.9461249e-18
1.0155156e-17
-3.8569001e-17
8.5308984e-17
-6.3383695e-19
-1.1013176e-17
-3.2382019e-17
5.9715642e-17
-1.1440598e-18
-1.3358595e-17
-2.4491104e-17
4.563496e-17
-4.1344047e-18
-2.0160931e-17
-3.8827328e-18
1.1244581e-17
-7.2854517e-18
-3.3982877e-17
3.6994877e-17
-6.8804477e-17
2.9773583e-17
-3.9131398e-17
8.4380608e-17
-7.3774554e-18
5.689057e-17
-1.7069659e-17
4.7364395e-17
1.160063e-09
2.6690842e-10
1.1880214e-10
2.4615299e-10
-1.410239e-09
-4.5855453e-11
1.4132781e-11
-4.3473487e-11
-1.0334734e-09
-1.2785239e-10
-1.3049489e-11
-1.1978913e-10
-6.7544421e-10
-1.3125707e-10
-2.3401667e-11
-1.1874911e-10
-5.0272819e-10
-1.2177504e-10
-3.5571554e-11
-1.0995856e-10
-4.0718135e-10
-1.1721509e-10
-4.6259061e-11
-1.0666782e-10
-3.3239984e-10
-1.1063494e-10
-5.295802e-11
-1.0211221e-10
-2.6868606e-10
-9.9848659e-11
-5.5074098e-11
-9.4174672e-11
-2.1382387e-10
-8.6533803e-11
-5.3454355e-11
-8.3258448e-11
-1.6783749e-10
-7.2740905e-11
-4.9418217e-11
-7.0874662e-11
-1.3050263e-10
-5.9797703e-11
-4.4119238e-11
-5.8711392e-11
-1.0051209e-10
-4.8328912e-11
-3.8265434e-11
-4.789367e-11
-7.6425916e-11
-3.8557707e-11
-3.2269487e-11
-3.8736048e-11
-5.7464305e-11
-3.0497112e-11
-2.654598e-11
-3.0876116e-11
-4.2907766e-11
-2.3967905e-11
-2.1433916e-11
-2.4180015e-11
-3.186548e-11
-1.8684985e-11
-1.7070538e-11
-1.8735371e-11
-2.3563877e-11
-1.4398011e-11
-1.3442124e-11
-1.4404598e-11
-1.737321e-11
-1.0984158e-11
-1.0487495e-11
-1.100839e-11
-1.2789143e-11
-8.3426809e-12
-8.1234703e-12
-8.3720601e-12
-9.4107022e-12
-6.3166889e-12
-6.2569772e-12
-6.344121e-12
-6.9270351e-12
-4.7701799e-12
-4.7979886e-12
-4.7939239e-12
-5.1031496e-12
-3.5946627e-12
-3.6663579e-12
-3.6139495e-12
-3.7632559e-12
-2.7039459e-12
-2.7936901e-12
-2.7189136e-12
-2.7785249e-12
-2.0303428e-12
-2.1238429e-12
-2.0416554e-12
-2.0541587e-12
-1.521689e-12
-1.612165e-12
-1.5303923e-12
-1.5202159e-12
-1.1387525e-12
-1.2222873e-12
-1.14526e-12
-1.1264486e-12
-8.5382326e-13
-9.2591775e-13
-8.5571295e-13
-8.3584619e-13
-6.4198684e-13
-7.0079962e-13
-6.3864041e-13
-6.2093968e-13
-4.8103204e-13
-5.2943859e-13
-4.7584886e-13
-4.6164942e-13
-3.5914436e-13
-3.9953813e-13
-3.5412016e-13
-3.4340763e-13
-2.6749439e-13
-3.0121924e-13
-2.631269e-13
-2.5557887e-13
-1.9827549e-13
-2.268746e-13
-1.9534126e-13
-1.903204e-13
-1.4652332e-13
-1.706901e-13
-1.451497e-13
-1.4178088e-13
-1.0809372e-13
-1.2833386e-13
-1.0769855e-13
-1.0567435e-13
-7.9617297e-14
-9.6410524e-14
-7.9619943e-14
-7.8772549e-14
-5.8569221e-14
-7.2390772e-14
-5.8659947e-14
-5.8919753e-14
-4.3040667e-14
-5.4179953e-14
-4.3114955e-14
-4.3790109e-14
-3.1604332e-14
-4.071185e-14
-3.166475e-14
-3.2727386e-14
-2.3193729e-14
-3.0602579e-14
-2.3217862e-14
-2.4413395e-14
-1.6999146e-14
-2.2763902e-14
-1.7024754e-14
-1.8320611e-14
-1.2408611e-14
-1.7047741e-14
-1.2593238e-14
-1.3676506e-14
-9.2391506e-15
-1.271885e-14
-9.256282e-15
-1.0281163e-14
-6.685778e-15
-9.4311642e-15
-6.6996335e-15
-7.4865741e-15
-4.7952782e-15
-7.216145e-15
-4.9707375e-15
-5.7014289e-15
-3.6434663e-15
-5.2733597e-15
-3.6460858e-15
-4.2608676e-15
-2.6660996e-15
-3.9075756e-15
-2.6657115e-15
-3.1649517e-15
-1.9876633e-15
-2.8968557e-15
-1.9820301e-15
-2.3393706e-15
-1.4058871e-15
-2.1146086e-15
-1.3924237e-15
-1.7322983e-15
-1.2236154e-15
-1.5614976e-15
-1.039824e-15
-1.2690842e-15
-7.5390419e-16
-1.1149567e-15
-9.0234205e-16
-9.3337946e-16
-6.4844315e-16
-8.0482843e-16
-6.3600044e-16
-6.6959603e-16
-5.6816532e-16
-5.743414e-16
-5.6050925e-16
-4.727938e-16
-3.4283597e-16
-4.1592337e-16
-3.3247651e-16
-3.2916417e-16
-2.9794816e-16
-2.9556968e-16
-2.8576482e-16
-2.1742569e-16
-2.63248e-16
-2.1521946e-16
-8.4694534e-17
-1.5415998e-16
-2.4220829e-16
-1.7957152e-16
-5.8631099e-17
-1.1342537e-16
-2.3593316e-16
-1.3904829e-16
-5.2327643e-17
-5.9337655e-17
-1.133225e-16
-7.3884914e-17
-1.0186043e-16
-1.4996522e-18
-1.0529332e-16
-2.0259492e-17
-1.1141947e-16
-4.5332316e-17
-1.3017998e-16
-1.9351306e-17
-9.4866573e-17
)
;

boundaryField
{
    movingWall
    {
        type            calculated;
        value           nonuniform List<scalar> 
16
(
-1.0755517e-16
1.2714722e-16
1.0755517e-16
-1.2714721e-16
-5.0562226e-17
1.4432842e-16
5.0562237e-17
-1.4432842e-16
-1.9314955e-17
5.3972764e-17
1.9314955e-17
-5.3972756e-17
3.9405729e-17
5.2207043e-17
-3.9405724e-17
-5.2207038e-17
)
;
    }
    CPLReceiveMD
    {
        type            calculated;
        value           nonuniform List<scalar> 
16
(
1.1781758e-11
-3.2002045e-09
-1.1781758e-11
3.2002045e-09
4.2519217e-12
-4.6980659e-10
-4.2519217e-12
4.6980659e-10
-3.4295791e-11
-1.9131069e-10
3.4295791e-11
1.9131069e-10
1.4494653e-12
-4.2753265e-10
-1.4494653e-12
4.2753265e-10
)
;
    }
    streamwiseIn
    {
        type            cyclic;
    }
    streamwiseOut
    {
        type            cyclic;
    }
    front
    {
        type            cyclic;
    }
    back
    {
        type            cyclic;
    }
}


// ************************************************************************* //
