/*--------------------------------*- C++ -*----------------------------------*\
| =========                 |                                                 |
| \\      /  F ield         | OpenFOAM: The Open Source CFD Toolbox           |
|  \\    /   O peration     | Version:  3.0.x                                 |
|   \\  /    A nd           | Web:      www.OpenFOAM.org                      |
|    \\/     M anipulation  |                                                 |
\*---------------------------------------------------------------------------*/
FoamFile
{
    version     2.0;
    format      ascii;
    class       volScalarField;
    location    "450";
    object      sigmaxx;
}
// * * * * * * * * * * * * * * * * * * * * * * * * * * * * * * * * * * * * * //

dimensions      [0 2 -2 0 0 0 0];

internalField   nonuniform List<scalar> 
960
(
2.3097699e-09
-2.7745432e-09
2.4674784e-09
3.6685468e-09
1.4134595e-09
-6.0051537e-10
-7.1076094e-10
1.2296753e-09
7.2777649e-11
-7.3834707e-10
-1.1817678e-09
1.0163564e-09
-1.368712e-12
-1.6010032e-09
-4.8537314e-10
1.7132737e-09
-2.4761891e-09
-4.2278719e-09
2.2459165e-09
4.264876e-09
-5.2999959e-09
-6.8250462e-09
5.1155621e-09
6.8251268e-09
-5.5711242e-09
-6.8815753e-09
5.4043027e-09
6.8467965e-09
-3.8368973e-09
-5.0988197e-09
3.6836172e-09
5.0362001e-09
-1.6913322e-09
-2.4166702e-09
1.5481257e-09
2.3356127e-09
1.3515941e-10
-6.1133313e-11
-2.6884807e-10
-2.9835682e-11
2.0013384e-09
1.4096155e-09
-2.1259838e-09
-1.5041917e-09
2.797103e-09
2.4338737e-09
-2.9140938e-09
-2.528495e-09
3.4315189e-09
2.8166262e-09
-3.5425993e-09
-2.9103929e-09
3.2677313e-09
2.8163871e-09
-3.3745053e-09
-2.9094887e-09
3.2287046e-09
2.476245e-09
-3.3324167e-09
-2.5684701e-09
2.9095845e-09
1.8431691e-09
-3.0110241e-09
-1.9341564e-09
2.5693984e-09
1.1845199e-09
-2.6688545e-09
-1.2738242e-09
2.2382195e-09
5.3839937e-10
-2.3355124e-09
-6.2529736e-10
1.9362869e-09
-6.7945649e-11
-2.0308883e-09
-1.579387e-11
1.8957788e-09
-3.965246e-10
-1.9869426e-09
3.166663e-10
1.6748109e-09
-4.4086302e-10
-1.7616812e-09
3.6562336e-10
1.7131923e-09
-4.2368591e-10
-1.7948994e-09
3.5377424e-10
2.0033037e-09
-1.286509e-10
-2.0790381e-09
6.4704819e-11
2.3139374e-09
2.1417201e-10
-2.3829977e-09
-2.7161632e-10
2.4135868e-09
5.9564291e-10
-2.4754109e-09
-6.4616777e-10
2.9589819e-09
1.2286129e-09
-3.0131562e-09
-1.2719225e-09
3.0545392e-09
1.8827913e-09
-3.1008033e-09
-1.9187186e-09
3.3593337e-09
2.5507671e-09
-3.3975818e-09
-2.579275e-09
3.6461187e-09
3.2261913e-09
-3.6763793e-09
-3.2473446e-09
3.2450916e-09
3.2379654e-09
-3.2675053e-09
-3.2519148e-09
3.262892e-09
5.6883107e-09
-3.2776997e-09
-5.6952993e-09
5.4729138e-09
5.9131703e-09
-5.4804476e-09
-5.9135302e-09
3.2167978e-09
6.1282182e-09
-3.2174692e-09
-6.1223572e-09
3.1517145e-09
6.3302794e-09
-3.1460025e-09
-6.3186694e-09
3.0590947e-09
6.5162862e-09
-3.0475344e-09
-6.4994528e-09
2.9401934e-09
6.6831394e-09
-2.923366e-09
-6.6616543e-09
2.7969609e-09
9.0467247e-09
-2.7754832e-09
-9.0211953e-09
2.6320615e-09
9.1653516e-09
-2.606575e-09
-9.1364106e-09
2.4489082e-09
9.2544177e-09
-2.4200695e-09
-9.2227132e-09
3.2587731e-11
9.3098905e-09
-1.056992e-12
-9.276075e-09
-1.7360699e-10
9.3273956e-09
2.071748e-10
-9.2921156e-09
-3.8284879e-10
9.3021847e-09
4.1781519e-10
-9.2660705e-09
-5.8826776e-10
9.2291097e-09
6.2402e-10
-9.1927638e-09
-7.8206838e-10
9.1025982e-09
8.1802916e-10
-9.0665853e-09
-3.1747022e-09
6.6975346e-09
3.2103406e-09
-6.6623722e-09
-3.3185304e-09
6.4458174e-09
3.3533704e-09
-6.4119643e-09
-3.4228274e-09
6.1218578e-09
3.4564591e-09
-6.0897029e-09
-3.4778077e-09
3.5004355e-09
3.5098995e-09
-3.4702844e-09
-3.4745691e-09
3.0150033e-09
3.5048804e-09
-2.987065e-09
-3.406337e-09
2.2544797e-10
3.4347287e-09
-1.9982115e-10
-1.051073e-09
-4.2648371e-10
1.0775161e-09
4.4982642e-10
-8.5013587e-10
-3.3666691e-09
8.7474404e-10
3.3878889e-09
-5.9594524e-10
-4.1311167e-09
6.189683e-10
4.1505099e-09
-3.1047144e-10
-7.1140386e-09
3.3224304e-10
7.1320099e-09
-2.6583305e-11
-1.0031501e-08
4.7481767e-11
1.0048493e-08
2.4336596e-09
-1.0581036e-08
-2.4133384e-09
1.0597383e-08
2.5880692e-09
-1.3088543e-08
-2.5684833e-09
1.310428e-08
2.6138116e-09
-1.0693698e-08
-2.594903e-09
1.0707941e-08
2.7705324e-10
-9.720501e-09
-2.6389453e-10
9.7363746e-09
1.1097031e-10
-4.0841452e-09
-1.0528692e-10
4.1038447e-09
-1.6328846e-09
-2.994405e-09
1.8375571e-09
3.2017648e-09
1.7538377e-09
-6.3269604e-10
-1.6835905e-09
7.4355882e-10
1.3826323e-09
-1.2046224e-09
-1.3701665e-09
1.2130146e-09
7.7782395e-10
-1.752125e-09
-6.8220831e-10
1.7605037e-09
-2.1215606e-09
-4.2942544e-09
2.2331378e-09
4.3167647e-09
-5.0253758e-09
-7.0705623e-09
5.0909439e-09
7.0893628e-09
-5.336592e-09
-6.8586025e-09
5.3570157e-09
6.8660118e-09
-3.6528582e-09
-5.051557e-09
3.6335324e-09
5.0427477e-09
-1.5557277e-09
-2.366479e-09
1.5077353e-09
2.3415255e-09
6.7575695e-10
-1.7041341e-11
-7.4205495e-10
-2.0373535e-11
1.8477072e-09
1.4464069e-09
-1.925626e-09
-1.492881e-09
2.8454781e-09
2.464481e-09
-2.9307004e-09
-2.5178015e-09
3.466731e-09
3.0641136e-09
-3.5555059e-09
-3.12256e-09
3.5162611e-09
2.8378254e-09
-3.6060421e-09
-2.9001455e-09
3.2495766e-09
2.4944336e-09
-3.339113e-09
-2.5598492e-09
2.9267387e-09
1.8589119e-09
-3.0151623e-09
-1.9266686e-09
2.5842886e-09
1.1982428e-09
-2.6708196e-09
-1.2674914e-09
2.2518197e-09
5.5025805e-10
-2.3356849e-09
-6.200818e-10
1.9492074e-09
1.6421815e-10
-2.0296065e-09
-2.3355701e-10
1.9083682e-09
-3.8752824e-10
-1.9844902e-09
3.1981886e-10
1.6872279e-09
-4.3283755e-10
-1.758294e-09
3.6787698e-10
1.7254684e-09
-4.1641112e-10
-1.790773e-09
3.5523955e-10
2.015394e-09
-3.4387014e-10
-2.0743371e-09
2.8740442e-10
2.3257532e-09
2.2040984e-10
-2.3778625e-09
-2.7140182e-10
2.6469365e-09
6.0152165e-10
-2.6918761e-09
-6.4642922e-10
2.9699382e-09
1.2341981e-09
-3.0075052e-09
-1.272574e-09
3.0649242e-09
1.8881366e-09
-3.0950331e-09
-1.9196833e-09
3.369081e-09
2.555931e-09
-3.3917511e-09
-2.5804886e-09
3.6551809e-09
3.2312137e-09
-3.6705342e-09
-3.2487559e-09
3.2534341e-09
3.2428562e-09
-3.2616887e-09
-3.2534814e-09
3.2704922e-09
5.6930767e-09
-3.2719496e-09
-5.6969845e-09
5.4797609e-09
5.9178255e-09
-5.4747946e-09
-5.9152991e-09
3.2228907e-09
6.1327788e-09
-3.2119382e-09
-6.1241783e-09
3.1570596e-09
8.5538803e-09
-3.1406135e-09
-8.5396338e-09
3.063704e-09
6.520698e-09
-3.0423037e-09
-6.5012919e-09
2.9440832e-09
6.6874918e-09
-2.9183071e-09
-6.6634603e-09
2.8001523e-09
9.0510242e-09
-2.7706078e-09
-9.0229406e-09
2.6345791e-09
9.1696018e-09
-2.601893e-09
-9.138067e-09
2.4507796e-09
9.2586185e-09
-2.4155893e-09
-9.2242506e-09
3.384465e-11
9.3140375e-09
3.2109242e-12
-9.2774623e-09
-1.7292737e-10
9.3314791e-09
2.1121929e-10
-9.2933201e-09
-3.8270379e-10
9.3061906e-09
4.2162436e-10
-9.2670574e-09
-5.8860838e-10
9.2330168e-09
6.2757771e-10
-9.1934959e-09
-7.8283855e-10
9.1063777e-09
8.2131647e-10
-9.0670237e-09
-3.1758357e-09
6.7011507e-09
3.2133326e-09
-6.6624742e-09
-3.3199487e-09
6.449226e-09
3.3560341e-09
-6.4116833e-09
-3.4244394e-09
6.1250073e-09
3.4587549e-09
-6.0889876e-09
-3.4795062e-09
3.5032637e-09
3.5117806e-09
-3.4690788e-09
-3.4762299e-09
5.2365603e-09
3.5062944e-09
-5.2044278e-09
-3.4078188e-09
2.4465362e-09
3.4355933e-09
-2.4165634e-09
-3.2713407e-09
-4.2506914e-10
3.2968107e-09
4.5289445e-10
-3.0699098e-09
-3.365881e-09
3.0933926e-09
3.3917231e-09
-5.9595825e-10
-4.1310068e-09
6.1796791e-10
4.1551773e-09
-3.097377e-10
-7.1146213e-09
3.3054656e-10
7.1375263e-09
-2.5073385e-11
-7.8135875e-09
4.5000901e-11
7.8356754e-09
2.4358806e-09
-1.0582639e-08
-2.416524e-09
1.0604257e-08
2.5908252e-09
-1.3089996e-08
-2.5722764e-09
1.3111294e-08
2.616818e-09
-1.0693069e-08
-2.6001666e-09
1.0713634e-08
2.8099416e-10
-9.7257727e-09
-2.6734703e-10
9.7386335e-09
1.1636608e-10
-4.1012852e-09
-1.043779e-10
4.101323e-09
-2.0914251e-09
-3.1547454e-09
1.9203035e-09
3.3028118e-09
1.0308282e-09
-9.1715207e-10
-1.2600494e-09
9.3387077e-10
1.5324414e-09
-9.2580433e-10
-1.7213381e-09
8.5199922e-10
4.9112212e-10
-1.6982389e-09
-5.7830636e-10
1.626545e-09
-2.2106192e-09
-4.2736777e-09
2.1660878e-09
4.2189948e-09
-5.1050394e-09
-6.850551e-09
5.0515936e-09
6.7961468e-09
-5.196406e-09
-6.8921485e-09
5.1326228e-09
6.8296629e-09
-3.7234384e-09
-5.0995999e-09
3.6463791e-09
5.0278333e-09
-1.608285e-09
-2.4124609e-09
1.5212989e-09
2.3339594e-09
4.1748577e-10
-5.5078952e-11
-5.0949948e-10
-2.7510016e-11
2.0455247e-09
1.415819e-09
-2.1385438e-09
-1.5006607e-09
2.8304046e-09
2.4394328e-09
-2.9217814e-09
-2.5253064e-09
3.4570257e-09
2.8212036e-09
-3.5466247e-09
-2.9074451e-09
3.2868445e-09
2.8199917e-09
-3.3761782e-09
-2.9062925e-09
3.2427247e-09
2.4791802e-09
-3.3327834e-09
-2.5653302e-09
2.9198236e-09
1.8457677e-09
-3.0106981e-09
-1.9314426e-09
2.5768572e-09
1.1868626e-09
-2.6681826e-09
-1.2715663e-09
2.2436299e-09
5.4036561e-10
-2.3347175e-09
-6.2345143e-10
1.9401941e-09
-6.6386974e-11
-2.0301015e-09
-1.4306083e-11
1.8985932e-09
-3.9530006e-10
-1.9862291e-09
3.1784899e-10
1.6768361e-09
-4.3990594e-10
-1.7610674e-09
3.6655562e-10
1.71465e-09
-4.22943e-10
-1.7943894e-09
3.5450411e-10
2.0043537e-09
-1.2807695e-10
-2.0786246e-09
6.5272511e-11
2.3146936e-09
2.1461429e-10
-2.3826694e-09
-2.7117693e-10
2.4141324e-09
5.9598152e-10
-2.4751545e-09
-6.4582927e-10
2.959376e-09
1.2288663e-09
-3.0129576e-09
-1.2716631e-09
3.0548235e-09
1.8829764e-09
-3.1006502e-09
-1.9185211e-09
3.3595392e-09
2.5509073e-09
-3.397463e-09
-2.5791248e-09
3.646268e-09
3.2263025e-09
-3.6762872e-09
-3.2472306e-09
3.2452006e-09
3.2380525e-09
-3.2674345e-09
-3.2518285e-09
3.2629718e-09
5.6883788e-09
-3.2776454e-09
-5.6952341e-09
5.4729723e-09
5.9132234e-09
-5.4804059e-09
-5.9134816e-09
3.2168408e-09
6.1282585e-09
-3.2174373e-09
-6.1223209e-09
3.1517462e-09
6.3303097e-09
-3.1459781e-09
-6.3186414e-09
3.0591181e-09
6.5163088e-09
-3.0475158e-09
-6.4994312e-09
2.9402103e-09
6.6831562e-09
-2.9233514e-09
-6.6616378e-09
2.7969738e-09
9.0467371e-09
-2.7754723e-09
-9.0211829e-09
2.6320714e-09
9.1653608e-09
-2.6065673e-09
-9.1364015e-09
2.4489152e-09
9.2544245e-09
-2.4200629e-09
-9.2227064e-09
3.2592857e-11
9.3098955e-09
-1.0517446e-12
-9.2760704e-09
-1.7360319e-10
9.3273988e-09
2.0717851e-10
-9.2921123e-09
-3.8284587e-10
9.3021871e-09
4.1781826e-10
-9.2660675e-09
-5.8826507e-10
9.2291121e-09
6.2402183e-10
-9.1927618e-09
-7.8206647e-10
9.1025994e-09
8.1803069e-10
-9.0665841e-09
-3.1747013e-09
6.6975351e-09
3.2103423e-09
-6.6623711e-09
-3.3185293e-09
6.4458181e-09
3.3533715e-09
-6.4119636e-09
-3.4228265e-09
6.1218584e-09
3.45646e-09
-6.0897023e-09
-3.477807e-09
3.5004355e-09
3.5099001e-09
-3.4702839e-09
-3.4745686e-09
3.0150034e-09
3.504881e-09
-2.9870652e-09
-3.4063366e-09
2.2544829e-10
3.4347292e-09
-1.998212e-10
-1.0510726e-09
-4.2648415e-10
1.0775164e-09
4.4982651e-10
-8.5013557e-10
-3.3666689e-09
8.7474427e-10
3.387889e-09
-5.95945e-10
-4.1311165e-09
6.1896847e-10
4.1505102e-09
-3.1047119e-10
-7.1140388e-09
3.3224319e-10
7.1320102e-09
-2.6583151e-11
-1.0031501e-08
4.7481834e-11
1.0048493e-08
2.4336597e-09
-1.0581037e-08
-2.4133384e-09
1.0597383e-08
2.5880692e-09
-1.3088542e-08
-2.5684832e-09
1.310428e-08
2.6138117e-09
-1.0693698e-08
-2.594903e-09
1.0707941e-08
2.7705326e-10
-9.720501e-09
-2.638945e-10
9.7363746e-09
1.1097031e-10
-4.0841453e-09
-1.0528685e-10
4.1038447e-09
-1.6548905e-09
-2.9888389e-09
1.8364632e-09
3.2069284e-09
1.7373148e-09
-6.3233907e-10
-1.6764289e-09
7.4860979e-10
1.3788003e-09
-1.2066959e-09
-1.3575579e-09
1.2169155e-09
7.8464198e-10
-1.7566447e-09
-6.7181165e-10
1.7592376e-09
-2.1108374e-09
-4.3004161e-09
2.2394747e-09
4.3116933e-09
-5.0142044e-09
-7.0766011e-09
5.0957518e-09
7.082868e-09
-5.3267025e-09
-6.8641552e-09
5.3615327e-09
6.8584825e-09
-3.6444555e-09
-5.0565463e-09
3.6372591e-09
5.0353009e-09
-1.5487026e-09
-2.3708276e-09
1.5106066e-09
2.3348787e-09
6.816113e-10
-2.065098e-11
-7.3973184e-10
-2.6059921e-11
1.8529573e-09
1.4435865e-09
-1.9233841e-09
-1.4974894e-09
2.8500791e-09
2.4623858e-09
-2.9284831e-09
-2.5213968e-09
3.4699514e-09
3.0625947e-09
-3.5537969e-09
-3.125322e-09
3.5182794e-09
2.8367595e-09
-3.6049821e-09
-2.9021331e-09
3.2509552e-09
2.4937212e-09
-3.3384438e-09
-2.5611939e-09
2.9276602e-09
1.8584601e-09
-3.0147233e-09
-1.9275586e-09
2.5848718e-09
1.1979844e-09
-2.6705463e-09
-1.2680507e-09
2.2521654e-09
5.5013149e-10
-2.3355292e-09
-6.2040641e-10
1.9493909e-09
1.6417263e-10
-2.0295326e-09
-2.3372198e-10
1.9084445e-09
-3.8752428e-10
-1.9844711e-09
3.1975669e-10
1.6872369e-09
-4.3280389e-10
-1.7583093e-09
3.6787747e-10
1.7254372e-09
-4.1636372e-10
-1.7908083e-09
3.5527611e-10
2.0153403e-09
-3.4381798e-10
-2.0743825e-09
2.8745946e-10
2.3256902e-09
2.2046215e-10
-2.3779117e-09
-2.7134035e-10
2.6468731e-09
6.0156985e-10
-2.6919247e-09
-6.4636878e-10
2.969879e-09
1.2342405e-09
-3.0075505e-09
-1.2725184e-09
3.0648711e-09
1.8881729e-09
-3.0950735e-09
-1.9196356e-09
3.3690352e-09
2.5559621e-09
-3.3917856e-09
-2.580448e-09
3.6551424e-09
3.2312399e-09
-3.6705628e-09
-3.2487219e-09
3.2534023e-09
3.2428776e-09
-3.2617121e-09
-3.2534543e-09
3.2704664e-09
5.6930935e-09
-3.2719685e-09
-5.6969624e-09
5.4797402e-09
5.9178389e-09
-5.4748096e-09
-5.9152815e-09
3.2228744e-09
6.1327893e-09
-3.2119499e-09
-6.1241647e-09
3.1570469e-09
8.5538881e-09
-3.1406226e-09
-8.5396231e-09
3.0636941e-09
6.520704e-09
-3.0423108e-09
-6.5012838e-09
2.9440757e-09
6.6874962e-09
-2.9183124e-09
-6.6634542e-09
2.8001466e-09
9.0510276e-09
-2.7706115e-09
-9.0229361e-09
2.6345748e-09
9.1696042e-09
-2.6018954e-09
-9.1380636e-09
2.4507765e-09
9.2586202e-09
-2.4155912e-09
-9.2242482e-09
3.3841877e-11
9.3140388e-09
3.2095285e-12
-9.2774608e-09
-1.7292921e-10
9.3314801e-09
2.1121848e-10
-9.293319e-09
-3.8270465e-10
9.3061913e-09
4.2162327e-10
-9.2670564e-09
-5.8860914e-10
9.2330169e-09
6.2757719e-10
-9.1934955e-09
-7.8283917e-10
9.1063772e-09
8.2131667e-10
-9.0670233e-09
-3.1758361e-09
6.7011509e-09
3.2133325e-09
-6.6624739e-09
-3.319949e-09
6.4492267e-09
3.3560342e-09
-6.4116831e-09
-3.4244395e-09
6.1250069e-09
3.4587551e-09
-6.0889879e-09
-3.4795062e-09
3.5032633e-09
3.5117807e-09
-3.4690792e-09
-3.4762299e-09
5.2365604e-09
3.5062945e-09
-5.2044273e-09
-3.4078187e-09
2.4465357e-09
3.4355934e-09
-2.4165633e-09
-3.2713407e-09
-4.2506964e-10
3.2968108e-09
4.5289401e-10
-3.0699098e-09
-3.365881e-09
3.0933926e-09
3.3917235e-09
-5.9595816e-10
-4.1310068e-09
6.1796798e-10
4.1551773e-09
-3.0973766e-10
-7.1146213e-09
3.3054664e-10
7.1375259e-09
-2.5073337e-11
-7.8135876e-09
4.5001001e-11
7.8356753e-09
2.4358807e-09
-1.0582639e-08
-2.416524e-09
1.0604257e-08
2.5908252e-09
-1.3089997e-08
-2.5722763e-09
1.3111294e-08
2.6168181e-09
-1.0693069e-08
-2.6001666e-09
1.0713634e-08
2.8099423e-10
-9.7257727e-09
-2.6734707e-10
9.7386335e-09
1.1636612e-10
-4.1012853e-09
-1.0437787e-10
4.101323e-09
)
;

boundaryField
{
    movingWall
    {
        type            calculated;
        value           nonuniform List<scalar> 
16
(
3.8201614e-11
4.4160621e-11
3.8201601e-11
4.4160642e-11
-3.6212565e-09
-3.6425439e-09
-3.6212566e-09
-3.642544e-09
-3.442392e-11
-3.2173065e-11
-3.4423815e-11
-3.2172988e-11
3.6419995e-09
3.6368764e-09
3.6419994e-09
3.6368763e-09
)
;
    }
    CPLReceiveMD
    {
        type            calculated;
        value           nonuniform List<scalar> 
16
(
3.5803525e-09
-2.1736105e-09
-2.650203e-09
-2.1969712e-09
-3.1802191e-09
-3.3962293e-09
-3.5782657e-09
-3.3874386e-09
3.065204e-09
2.4113591e-09
2.5163381e-09
2.4073237e-09
4.1300077e-09
3.6116757e-09
3.7455229e-09
3.617787e-09
)
;
    }
    streamwiseIn
    {
        type            cyclic;
    }
    streamwiseOut
    {
        type            cyclic;
    }
    front
    {
        type            cyclic;
    }
    back
    {
        type            cyclic;
    }
}


// ************************************************************************* //
