/*--------------------------------*- C++ -*----------------------------------*\
| =========                 |                                                 |
| \\      /  F ield         | OpenFOAM: The Open Source CFD Toolbox           |
|  \\    /   O peration     | Version:  3.0.x                                 |
|   \\  /    A nd           | Web:      www.OpenFOAM.org                      |
|    \\/     M anipulation  |                                                 |
\*---------------------------------------------------------------------------*/
FoamFile
{
    version     2.0;
    format      ascii;
    class       volScalarField;
    location    "450";
    object      sigmayy;
}
// * * * * * * * * * * * * * * * * * * * * * * * * * * * * * * * * * * * * * //

dimensions      [0 2 -2 0 0 0 0];

internalField   nonuniform List<scalar> 
960
(
-5.6665073e-09
3.012006e-09
-2.8878326e-09
-4.5590894e-09
-7.0105879e-10
1.3741135e-09
1.667139e-10
-2.2969899e-09
2.0767263e-09
1.6392994e-09
7.8321756e-10
-1.8806723e-09
1.7753782e-09
2.6870765e-09
-2.6967165e-10
-2.618419e-09
3.998456e-09
5.2704483e-09
-3.064928e-09
-5.0639237e-09
6.5959369e-09
7.791865e-09
-5.8088173e-09
-7.5294203e-09
6.7525789e-09
7.8908774e-09
-6.0584741e-09
-7.5848894e-09
4.898584e-09
5.9734078e-09
-4.2897197e-09
-5.6429583e-09
2.5601568e-09
3.2555372e-09
-2.0259001e-09
-2.9204916e-09
5.336538e-10
8.5912689e-10
-6.6721872e-11
-5.3471396e-10
-1.2327383e-09
-7.645601e-10
1.6402374e-09
1.0690556e-09
-2.1837981e-09
-1.8261621e-09
2.5414156e-09
2.1074556e-09
-2.8068785e-09
-2.2685358e-09
3.124482e-09
2.5285902e-09
-2.8276344e-09
-2.2760072e-09
3.1141893e-09
2.5186676e-09
-2.7613789e-09
-1.934991e-09
3.0242574e-09
2.1629799e-09
-2.4649083e-09
-1.3396627e-09
2.7096842e-09
1.5549477e-09
-2.1240607e-09
-6.9208316e-10
2.3545052e-09
8.9601832e-10
-1.7995144e-09
-6.8642844e-11
2.0177732e-09
2.6161722e-10
-1.5321726e-09
4.7597074e-10
1.7391219e-09
-2.9401209e-10
-1.4538529e-09
7.9848178e-10
1.6494743e-09
-6.2785837e-10
-1.3467726e-09
8.8581148e-10
1.5304684e-09
-7.2713197e-10
-1.4250008e-09
8.504397e-10
1.5958696e-09
-7.0446104e-10
-1.6734369e-09
5.9247069e-10
1.8304883e-09
-4.5996478e-10
-1.9626348e-09
2.3911566e-10
2.1049371e-09
-1.207735e-10
-2.1625245e-09
-1.9139179e-10
2.2893053e-09
2.9502355e-10
-2.5880162e-09
-7.9192099e-10
2.6987116e-09
8.8046843e-10
-2.7794553e-09
-1.4347853e-09
2.8737417e-09
1.5080786e-09
-3.0564172e-09
-2.1051845e-09
3.1342302e-09
2.1632714e-09
-3.2972983e-09
-2.790435e-09
3.3588057e-09
2.8335372e-09
-3.1611134e-09
-3.1469546e-09
3.2066791e-09
3.1754432e-09
-3.1968134e-09
-4.7190419e-09
3.2269813e-09
4.7334559e-09
-4.2882506e-09
-5.1688186e-09
4.3037316e-09
5.169861e-09
-3.1047539e-09
-5.5989569e-09
3.1064059e-09
5.5874729e-09
-2.9746284e-09
-6.0031108e-09
2.9634354e-09
5.9800658e-09
-2.7894193e-09
-6.3751475e-09
2.7664714e-09
6.3416095e-09
-2.5516395e-09
-6.7088708e-09
2.5181136e-09
6.6659954e-09
-2.2651915e-09
-8.1073738e-09
2.2223324e-09
8.0563845e-09
-1.9354054e-09
-8.3446368e-09
1.8845044e-09
8.2868059e-09
-1.5691084e-09
-8.5227757e-09
1.5114845e-09
8.4594043e-09
-6.5154769e-11
-8.6337261e-09
2.1331932e-12
8.566123e-09
3.4722939e-10
-8.66874e-09
-4.1433534e-10
8.5982005e-09
7.6570904e-10
-8.618321e-09
-8.356198e-10
8.5461076e-09
1.176544e-09
-8.4721728e-09
-1.2480322e-09
8.3994923e-09
1.5641431e-09
-8.2191513e-09
-1.6360526e-09
8.1471338e-09
3.0207287e-09
-6.7377054e-09
-3.0919966e-09
6.6673869e-09
3.3083839e-09
-6.2342719e-09
-3.3780574e-09
6.1665702e-09
3.516977e-09
-5.5863532e-09
-3.5842357e-09
5.5220469e-09
3.6269368e-09
-3.6721894e-09
-3.691117e-09
3.6118898e-09
3.6204593e-09
-2.7013252e-09
-3.6810794e-09
2.6454508e-09
3.4839947e-09
-4.508951e-10
-3.5407763e-09
3.9964304e-10
2.1021466e-09
8.5296809e-10
-2.1550316e-09
-8.9965229e-10
1.7002722e-09
3.4046583e-09
-1.7494876e-09
-3.4470969e-09
1.1918908e-09
4.9335535e-09
-1.2379363e-09
-4.9723392e-09
6.2094311e-10
7.5707169e-09
-6.6448585e-10
-7.606659e-09
5.3166738e-11
1.0076961e-08
-9.496337e-11
-1.0110944e-08
-1.5386388e-09
1.1176032e-08
1.4979967e-09
-1.1208725e-08
-1.847458e-09
1.2862364e-08
1.8082864e-09
-1.2893839e-08
-1.8989429e-09
1.1401356e-08
1.8611258e-09
-1.1429841e-08
-5.5410643e-10
9.4549611e-09
5.2778907e-10
-9.4867082e-09
-2.2194059e-10
4.8396102e-09
2.1057386e-10
-4.8790091e-09
1.9377671e-09
3.3267145e-09
-2.3520544e-09
-3.7403691e-09
-8.4031917e-10
1.6001833e-09
6.956588e-10
-1.8201123e-09
-7.6536954e-10
2.0794724e-09
7.3456993e-10
-2.0927512e-09
1.0860233e-10
2.8429134e-09
-3.0813902e-10
-2.8530474e-09
2.9089828e-09
5.2649875e-09
-3.1423498e-09
-5.301108e-09
5.7189773e-09
7.8220581e-09
-5.8616128e-09
-7.8493939e-09
6.0074831e-09
7.7309439e-09
-6.060345e-09
-7.7348737e-09
4.3038524e-09
5.7809232e-09
-4.2771233e-09
-5.752437e-09
2.1067149e-09
3.0733125e-09
-2.0221229e-09
-3.0130121e-09
-2.5983186e-11
7.0403374e-10
1.4797216e-10
-6.1959015e-10
-1.3709102e-09
-8.9190939e-10
1.5170534e-09
9.9349683e-10
-2.3673452e-09
-1.9299759e-09
2.5291145e-09
2.0441909e-09
-2.9434335e-09
-2.4639995e-09
3.1135373e-09
2.5874042e-09
-3.0418134e-09
-2.3447462e-09
3.2151374e-09
2.4748662e-09
-2.8406819e-09
-1.9912374e-09
3.0146139e-09
2.1265987e-09
-2.5273092e-09
-1.3862838e-09
2.6999827e-09
1.5254823e-09
-2.1747862e-09
-7.3098442e-10
2.3445052e-09
8.724334e-10
-1.8423002e-09
-1.010029e-10
2.007386e-09
2.4298235e-10
-1.5695974e-09
3.3800277e-10
1.7283283e-09
-1.975067e-10
-1.4876361e-09
7.7559347e-10
1.6382826e-09
-6.3877432e-10
-1.3779957e-09
8.6608036e-10
1.518907e-09
-7.3509355e-10
-1.4542957e-09
8.3312431e-10
1.5839825e-09
-7.0997979e-10
-1.7011366e-09
6.8796256e-10
1.8183344e-09
-5.7443566e-10
-1.9888768e-09
2.2507766e-10
2.092588e-09
-1.2265673e-10
-2.298291e-09
-2.0432393e-10
2.3878009e-09
2.9445564e-10
-2.6113626e-09
-8.0397499e-10
2.6862316e-09
8.8095299e-10
-2.8012867e-09
-1.4461412e-09
2.8613174e-09
1.5093938e-09
-3.076697e-09
-2.1160125e-09
3.1219073e-09
2.1652374e-09
-3.3160029e-09
-2.8008549e-09
3.3466213e-09
2.8360135e-09
-3.1782265e-09
-3.1570173e-09
3.1946776e-09
3.1783164e-09
-3.2123294e-09
-4.7287843e-09
3.2152071e-09
4.7366307e-09
-4.3021771e-09
-5.1782861e-09
4.2922222e-09
5.1732518e-09
-3.1171106e-09
-5.6081955e-09
3.0951931e-09
5.5910047e-09
-2.9854441e-09
-7.1217199e-09
2.9525459e-09
7.0932316e-09
-2.79873e-09
-6.3840365e-09
2.7559276e-09
6.3452256e-09
-2.5594866e-09
-6.7176245e-09
2.5079351e-09
6.6695609e-09
-2.2716238e-09
-8.1160094e-09
2.2125369e-09
8.0598403e-09
-1.9404768e-09
-8.3531644e-09
1.8751073e-09
8.2900925e-09
-1.5728775e-09
-8.5311977e-09
1.5024999e-09
8.4624596e-09
-6.7687801e-11
-8.6420355e-09
-6.4204153e-12
8.5688828e-09
3.4585617e-10
-8.6769185e-09
-4.2243736e-10
8.6005984e-09
7.6540885e-10
-8.6263413e-09
-8.4324773e-10
8.5480731e-09
1.1772179e-09
-8.4799934e-09
-1.2551546e-09
8.4009503e-09
1.565678e-09
-8.2267151e-09
-1.6426324e-09
8.1480059e-09
3.0229919e-09
-6.7449412e-09
-3.0979844e-09
6.6675874e-09
3.3112177e-09
-6.2410918e-09
-3.3833876e-09
6.1660057e-09
3.5201988e-09
-5.5926541e-09
-3.5888293e-09
5.5206144e-09
3.6303324e-09
-3.6778472e-09
-3.6948808e-09
3.6094772e-09
3.6237799e-09
-3.8157601e-09
-3.6839084e-09
3.7514949e-09
3.4869574e-09
-1.564392e-09
-3.5425062e-09
1.5044465e-09
3.2140013e-09
8.5013833e-10
-3.2649411e-09
-9.057889e-10
2.8111395e-09
3.4030818e-09
-2.8581049e-09
-3.4547658e-09
1.1919165e-09
4.9333332e-09
-1.2359358e-09
-4.9816743e-09
6.1947541e-10
7.571882e-09
-6.6109316e-10
-7.617692e-09
5.0146727e-11
8.9698145e-09
-9.0001886e-11
-9.01399e-09
-1.543081e-09
1.1179238e-08
1.5043677e-09
-1.1222474e-08
-1.8529701e-09
1.2865272e-08
1.8158724e-09
-1.2907867e-08
-1.9049558e-09
1.1400097e-08
1.8716529e-09
-1.1441228e-08
-5.6198831e-10
9.4655044e-09
5.3469404e-10
-9.491226e-09
-2.3273214e-10
4.8738901e-09
2.0875581e-10
-4.8739658e-09
1.9011375e-09
3.5206828e-09
-2.5590509e-09
-4.0577393e-09
-8.5883632e-10
1.6612214e-09
4.4622653e-10
-2.0301023e-09
-1.292748e-09
1.6890034e-09
1.0285778e-09
-1.8560388e-09
-9.1940756e-11
2.5799356e-09
-2.659136e-10
-2.7297463e-09
2.7122164e-09
5.0752902e-09
-3.0961362e-09
-5.2464573e-09
5.5595648e-09
7.5760802e-09
-5.8709253e-09
-7.7298777e-09
5.7950448e-09
7.673321e-09
-6.0279402e-09
-7.7847804e-09
4.2304628e-09
5.7688626e-09
-4.3786484e-09
-5.8305396e-09
2.0418695e-09
3.0740447e-09
-2.1157409e-09
-3.0899723e-09
2.5395991e-11
7.0476976e-10
-4.0923188e-11
-6.8206676e-10
-1.5350993e-09
-8.9189259e-10
1.5629292e-09
9.462328e-10
-2.4138564e-09
-1.9288262e-09
2.4729743e-09
2.0085226e-09
-2.981378e-09
-2.3497631e-09
3.0651334e-09
2.4497253e-09
-2.9584205e-09
-2.3393899e-09
3.064081e-09
2.4555344e-09
-2.8583831e-09
-1.9842348e-09
2.9830462e-09
2.1129962e-09
-2.5365473e-09
-1.3780584e-09
2.6763997e-09
1.516098e-09
-2.176826e-09
-7.2200159e-10
2.3279446e-09
8.6608238e-10
-1.838296e-09
-9.1678938e-11
1.9967981e-09
2.3867218e-10
-1.560637e-09
4.5843057e-10
1.7227051e-09
-3.1152406e-10
-1.4747387e-09
7.8516753e-10
1.6367168e-09
-6.411722e-10
-1.362105e-09
8.7572643e-10
1.5206124e-09
-7.3722599e-10
-1.4362675e-09
8.4281812e-10
1.5882915e-09
-7.1209567e-10
-1.6817256e-09
5.8672108e-10
1.8246846e-09
-4.6572594e-10
-1.9687386e-09
2.3478388e-10
2.1005088e-09
-1.2511213e-10
-2.1670253e-09
-1.946489e-10
2.285937e-09
2.9176236e-10
-2.591339e-09
-7.9435714e-10
2.6961553e-09
8.7802245e-10
-2.7819096e-09
-1.4365976e-09
2.8718047e-09
1.5062483e-09
-3.058232e-09
-2.1065397e-09
3.1327627e-09
2.1619037e-09
-3.2986424e-09
-2.7914559e-09
3.3576947e-09
2.8325164e-09
-3.1621104e-09
-3.1477208e-09
3.20584e-09
3.1746827e-09
-3.1975537e-09
-4.7196158e-09
3.2263483e-09
4.7328897e-09
-4.2888005e-09
-5.1692476e-09
4.3032544e-09
5.1694414e-09
-3.1051626e-09
-5.5992754e-09
3.1060466e-09
5.5871621e-09
-2.9749324e-09
-6.0033463e-09
2.9631652e-09
5.9798344e-09
-2.7896456e-09
-6.3753214e-09
2.7662683e-09
6.3414372e-09
-2.5518071e-09
-6.7089991e-09
2.5179604e-09
6.6658677e-09
-2.2653173e-09
-8.1074682e-09
2.2222178e-09
8.0562902e-09
-1.9354998e-09
-8.3447062e-09
1.8844197e-09
8.2867364e-09
-1.5691779e-09
-8.5228268e-09
1.5114197e-09
8.4593532e-09
-6.5206445e-11
-8.633764e-09
2.0842801e-12
8.5660861e-09
3.4719093e-10
-8.6687669e-09
-4.1437128e-10
8.5981735e-09
7.6568025e-10
-8.618341e-09
-8.356471e-10
8.5460867e-09
1.1765216e-09
-8.4721889e-09
-1.2480515e-09
8.3994771e-09
1.5641266e-09
-8.219162e-09
-1.6360671e-09
8.1471232e-09
3.0207175e-09
-6.7377128e-09
-3.0920085e-09
6.6673786e-09
3.308375e-09
-6.2342779e-09
-3.3780657e-09
6.1665643e-09
3.5169702e-09
-5.586358e-09
-3.584242e-09
5.5220423e-09
3.6269319e-09
-3.6721921e-09
-3.6911216e-09
3.6118863e-09
3.6204556e-09
-2.7013277e-09
-3.6810829e-09
2.6454492e-09
3.4839919e-09
-4.5089739e-10
-3.5407789e-09
3.9964167e-10
2.1021445e-09
8.5296768e-10
-2.1550335e-09
-8.9965356e-10
1.7002706e-09
3.4046571e-09
-1.749489e-09
-3.4470981e-09
1.1918897e-09
4.9335524e-09
-1.2379373e-09
-4.9723403e-09
6.2094218e-10
7.5707167e-09
-6.6448662e-10
-7.6066601e-09
5.3166099e-11
1.0076961e-08
-9.4963831e-11
-1.0110945e-08
-1.5386391e-09
1.1176032e-08
1.4979964e-09
-1.1208725e-08
-1.8474583e-09
1.2862363e-08
1.8082861e-09
-1.2893838e-08
-1.8989431e-09
1.1401355e-08
1.8611256e-09
-1.1429841e-08
-5.541065e-10
9.4549609e-09
5.2778901e-10
-9.4867084e-09
-2.2194065e-10
4.8396102e-09
2.105737e-10
-4.8790091e-09
1.9748389e-09
3.3138849e-09
-2.3330419e-09
-3.7511288e-09
-8.1609735e-10
1.595623e-09
6.9849145e-10
-1.829961e-09
-7.630793e-10
2.077428e-09
7.2646255e-10
-2.1013728e-09
9.514611e-11
2.8431538e-09
-3.1250136e-10
-2.8549631e-09
2.8928691e-09
5.2669929e-09
-3.139931e-09
-5.2984474e-09
5.7056143e-09
7.8232837e-09
-5.8572098e-09
-7.8460824e-09
5.9988009e-09
7.7313224e-09
-6.056447e-09
-7.7308658e-09
4.2991504e-09
5.7807145e-09
-4.2728351e-09
-5.7490913e-09
2.1049376e-09
3.0726204e-09
-2.0173527e-09
-3.0111161e-09
-2.5809077e-11
7.0282302e-10
1.5265719e-10
-6.1901506e-10
-1.3702664e-09
-8.9366104e-10
1.5208144e-09
9.9282762e-10
-2.3664086e-09
-1.9321331e-09
2.5318919e-09
2.0425811e-09
-2.9410986e-09
-2.4663203e-09
3.1162357e-09
2.5852631e-09
-3.0384349e-09
-2.347063e-09
3.2180784e-09
2.4723304e-09
-2.8372851e-09
-1.9934478e-09
3.017403e-09
2.123863e-09
-2.5241279e-09
-1.3883076e-09
2.7024279e-09
1.5228195e-09
-2.17191e-09
-7.3278971e-10
2.346602e-09
8.6997049e-10
-1.8397816e-09
-1.0256802e-10
2.0091537e-09
2.407859e-10
-1.5674466e-09
3.3668778e-10
1.7297975e-09
-1.9940745e-10
-1.4858369e-09
7.7451156e-10
1.6394877e-09
-6.4037677e-10
-1.3765176e-09
8.6520253e-10
1.5198831e-09
-7.3641536e-10
-1.4530992e-09
8.3242535e-10
1.5847637e-09
-7.1105154e-10
-1.7001796e-09
6.8741367e-10
1.8189523e-09
-5.752921e-10
-1.9881215e-09
2.2465045e-10
2.093072e-09
-1.2333105e-10
-2.2977037e-09
-2.0465088e-10
2.3881761e-09
2.9393219e-10
-2.6109112e-09
-8.0422184e-10
2.6865192e-09
8.8055149e-10
-2.8009433e-09
-1.4463255e-09
2.8615351e-09
1.5090915e-09
-3.0764389e-09
-2.1161492e-09
3.1220693e-09
2.1650111e-09
-3.3158111e-09
-2.8009555e-09
3.34674e-09
2.8358454e-09
-3.1780857e-09
-3.1570897e-09
3.1947635e-09
3.1781943e-09
-3.2122272e-09
-4.7288349e-09
3.2152684e-09
4.7365418e-09
-4.302104e-09
-5.1783215e-09
4.2922651e-09
5.1731883e-09
-3.117059e-09
-5.6082196e-09
3.0952224e-09
5.5909602e-09
-2.9854084e-09
-7.1217352e-09
2.9525656e-09
7.0932004e-09
-2.7987057e-09
-6.3840463e-09
2.7559407e-09
6.3452045e-09
-2.5594707e-09
-6.7176302e-09
2.5079433e-09
6.669547e-09
-2.2716135e-09
-8.1160125e-09
2.2125411e-09
8.0598312e-09
-1.9404705e-09
-8.3531658e-09
1.8751089e-09
8.2900869e-09
-1.5728741e-09
-8.5311979e-09
1.5025006e-09
8.4624563e-09
-6.7685252e-11
-8.6420353e-09
-6.4204715e-12
8.5688817e-09
3.45857e-10
-8.6769181e-09
-4.2243816e-10
8.6005979e-09
7.6540801e-10
-8.6263407e-09
-8.4324752e-10
8.5480727e-09
1.1772172e-09
-8.479992e-09
-1.2551552e-09
8.4009508e-09
1.5656774e-09
-8.226713e-09
-1.6426339e-09
8.1480062e-09
3.0229911e-09
-6.7449409e-09
-3.0979852e-09
6.6675876e-09
3.311217e-09
-6.2410924e-09
-3.3833884e-09
6.1660059e-09
3.5201982e-09
-5.5926531e-09
-3.58883e-09
5.5206154e-09
3.6303317e-09
-3.6778463e-09
-3.6948812e-09
3.6094782e-09
3.6237792e-09
-3.8157601e-09
-3.6839087e-09
3.7514941e-09
3.4869568e-09
-1.5643911e-09
-3.5425065e-09
1.5044465e-09
3.2140009e-09
8.5013922e-10
-3.2649414e-09
-9.0578802e-10
2.8111392e-09
3.4030817e-09
-2.858105e-09
-3.4547667e-09
1.1919163e-09
4.9333332e-09
-1.2359359e-09
-4.9816743e-09
6.1947527e-10
7.5718819e-09
-6.6109324e-10
-7.6176912e-09
5.0146643e-11
8.9698145e-09
-9.0001956e-11
-9.0139901e-09
-1.543081e-09
1.1179238e-08
1.5043677e-09
-1.1222474e-08
-1.8529701e-09
1.2865272e-08
1.8158724e-09
-1.2907867e-08
-1.9049558e-09
1.1400097e-08
1.871653e-09
-1.1441228e-08
-5.6198839e-10
9.4655044e-09
5.3469416e-10
-9.4912261e-09
-2.3273226e-10
4.8738902e-09
2.0875573e-10
-4.8739656e-09
)
;

boundaryField
{
    movingWall
    {
        type            calculated;
        value           nonuniform List<scalar> 
16
(
-7.6403196e-11
-8.8321215e-11
-7.6403234e-11
-8.832131e-11
3.9138328e-09
3.9564075e-09
3.9138329e-09
3.9564076e-09
6.8847851e-11
6.4346134e-11
6.8847618e-11
6.4345973e-11
-3.9553186e-09
-3.9450724e-09
-3.9553186e-09
-3.9450723e-09
)
;
    }
    CPLReceiveMD
    {
        type            calculated;
        value           nonuniform List<scalar> 
16
(
-8.2076725e-09
3.0192188e-09
3.0186932e-09
3.0590003e-09
3.8233578e-09
4.130363e-09
4.3677235e-09
4.1110844e-09
-4.0832838e-09
-3.4996584e-09
-3.7511201e-09
-3.4747628e-09
-5.4820111e-09
-4.5601908e-09
-4.9431615e-09
-4.572846e-09
)
;
    }
    streamwiseIn
    {
        type            cyclic;
    }
    streamwiseOut
    {
        type            cyclic;
    }
    front
    {
        type            cyclic;
    }
    back
    {
        type            cyclic;
    }
}


// ************************************************************************* //
