/*--------------------------------*- C++ -*----------------------------------*\
| =========                 |                                                 |
| \\      /  F ield         | OpenFOAM: The Open Source CFD Toolbox           |
|  \\    /   O peration     | Version:  3.0.x                                 |
|   \\  /    A nd           | Web:      www.OpenFOAM.org                      |
|    \\/     M anipulation  |                                                 |
\*---------------------------------------------------------------------------*/
FoamFile
{
    version     2.0;
    format      ascii;
    class       volScalarField;
    location    "450";
    object      sigmazz;
}
// * * * * * * * * * * * * * * * * * * * * * * * * * * * * * * * * * * * * * //

dimensions      [0 2 -2 0 0 0 0];

internalField   nonuniform List<scalar> 
960
(
3.3567374e-09
-2.3746277e-10
4.2035417e-10
8.9054261e-10
-7.1240074e-10
-7.7359815e-10
5.4404704e-10
1.0673146e-09
-2.1495039e-09
-9.0095232e-10
3.9855019e-10
8.6431598e-10
-1.7740095e-09
-1.0860733e-09
7.5504478e-10
9.0514528e-10
-1.5222669e-09
-1.0425765e-09
8.1901158e-10
7.9904771e-10
-1.295941e-09
-9.6681885e-10
6.9325523e-10
7.0429351e-10
-1.1814546e-09
-1.0093021e-09
6.5417138e-10
7.3809293e-10
-1.0616868e-09
-8.745881e-10
6.0610244e-10
6.0675826e-10
-8.6882453e-10
-8.3886701e-10
4.7777434e-10
5.8487888e-10
-6.688132e-10
-7.9799358e-10
3.3556994e-10
5.6454964e-10
-7.6860005e-10
-6.4505541e-10
4.8574634e-10
4.3513605e-10
-6.1330487e-10
-6.0771156e-10
3.7267826e-10
4.2103937e-10
-6.246404e-10
-5.4809041e-10
4.1811734e-10
3.8180268e-10
-4.400969e-10
-5.4037994e-10
2.6031603e-10
3.9082114e-10
-4.6732574e-10
-5.4125391e-10
3.0815937e-10
4.0549018e-10
-4.4467613e-10
-5.0350641e-10
3.0133986e-10
3.7920867e-10
-4.4533774e-10
-4.9243674e-10
3.1434931e-10
3.7780586e-10
-4.3870508e-10
-4.6975653e-10
3.1773919e-10
3.6368014e-10
-4.0411432e-10
-4.0802509e-10
2.9176633e-10
3.0980596e-10
-4.4192593e-10
-4.0195718e-10
3.3746835e-10
3.1119207e-10
-3.2803825e-10
-4.4494846e-10
2.312128e-10
3.6150861e-10
-2.8819147e-10
-4.267538e-10
1.9902977e-10
3.5068679e-10
-3.298668e-10
-4.6381978e-10
2.4854979e-10
3.9525996e-10
-3.5130258e-10
-4.5328767e-10
2.7806067e-10
3.9238982e-10
-2.5106229e-10
-4.0425111e-10
1.8610564e-10
3.5114422e-10
-3.7096569e-10
-4.3669194e-10
3.1444457e-10
3.9145407e-10
-2.7508394e-10
-4.48006e-10
2.2706158e-10
4.1063998e-10
-3.0291654e-10
-4.4558259e-10
2.6335153e-10
4.1600359e-10
-3.4882043e-10
-4.3575631e-10
3.1757366e-10
4.1380739e-10
-8.39782e-11
-9.1010864e-11
6.0826251e-11
7.6471533e-11
-6.6078584e-11
-9.6926872e-10
5.0718425e-11
9.6184346e-10
-1.1846632e-09
-7.4435169e-10
1.1767161e-09
7.4366922e-10
-1.1204388e-10
-5.292613e-10
1.1106333e-10
5.3488432e-10
-1.770861e-10
-3.2716866e-10
1.8256706e-10
3.3860352e-10
-2.6967535e-10
-1.4113877e-10
2.8106299e-10
1.5784328e-10
-3.8855388e-10
2.5731434e-11
4.0525232e-10
-4.341131e-12
-5.3176936e-10
-9.3935098e-10
5.5315076e-10
9.648108e-10
-6.9665609e-10
-8.2071486e-10
7.2207064e-10
8.4960471e-10
-8.7979987e-10
-7.3164202e-10
9.0858501e-10
7.6330891e-10
3.2567037e-11
-6.7616432e-10
-1.0762012e-12
7.0995203e-10
-1.736224e-10
-6.5865559e-10
2.0716054e-10
6.9391512e-10
-3.8286025e-10
-6.8386377e-10
4.1780461e-10
7.199629e-10
-5.8827626e-10
-7.5693686e-10
6.2401218e-10
7.9327154e-10
-7.8207469e-10
-8.8344689e-10
8.1802339e-10
9.1945148e-10
1.5397346e-10
4.0170804e-11
-1.1834395e-10
-5.0146411e-12
1.0146468e-11
-2.1154551e-10
2.4687006e-11
2.4539404e-10
-9.4149595e-11
-5.3550459e-10
1.2777657e-10
5.6765595e-10
-1.4912919e-10
1.7175385e-10
1.8121753e-10
-1.4160541e-10
-1.458902e-10
-3.1367807e-10
1.7619897e-10
3.4161429e-10
-7.765767e-11
2.2544713e-10
1.0604757e-10
-1.9982189e-10
-1.0510736e-09
-4.2648437e-10
1.0775155e-09
4.4982586e-10
-8.5013636e-10
-3.798924e-11
8.7474359e-10
5.9208079e-11
-5.9594559e-10
-8.0243681e-10
6.1896797e-10
8.2182931e-10
-3.1047168e-10
-4.5667832e-10
3.3224281e-10
4.7464909e-10
-2.6583434e-11
-4.5460077e-11
4.7481603e-11
6.2451617e-11
-8.9502082e-10
-5.9499574e-10
9.1534179e-10
6.1134181e-10
-7.4061116e-10
2.2617846e-10
7.6019693e-10
-2.1044141e-10
-7.1486871e-10
-7.0765771e-10
7.3377726e-10
7.2189993e-10
2.7705319e-10
2.6553984e-10
-2.6389453e-10
-2.4966641e-10
1.1097028e-10
-7.5546495e-10
-1.0528693e-10
7.7516438e-10
-3.0488248e-10
-3.3230942e-10
5.1449735e-10
5.3860429e-10
-9.1351849e-10
-9.6748726e-10
9.8793168e-10
1.0765535e-09
-6.1726274e-10
-8.7485002e-10
6.3559659e-10
8.7973668e-10
-8.8642627e-10
-1.0907885e-09
9.9034733e-10
1.0925437e-09
-7.8742216e-10
-9.7073312e-10
9.0921202e-10
9.8434328e-10
-6.9360154e-10
-7.5149575e-10
7.7066894e-10
7.6003117e-10
-6.708911e-10
-8.723414e-10
7.0332928e-10
8.6886187e-10
-6.5099428e-10
-7.2936617e-10
6.435909e-10
7.0968936e-10
-5.5098716e-10
-7.0683353e-10
5.1438764e-10
6.7148661e-10
-6.4977376e-10
-6.869924e-10
5.940828e-10
6.3996369e-10
-4.7679698e-10
-5.5449746e-10
4.0857261e-10
4.9938417e-10
-4.7813289e-10
-5.3450509e-10
4.0158596e-10
4.736106e-10
-5.2329756e-10
-6.0011407e-10
4.4196861e-10
5.3515579e-10
-4.7444773e-10
-4.9307918e-10
3.9090477e-10
4.2527929e-10
-4.0889467e-10
-5.0319624e-10
3.2449913e-10
4.3325057e-10
-3.9942948e-10
-4.7262804e-10
3.1517952e-10
4.0118624e-10
-4.0950237e-10
-4.672584e-10
3.2631439e-10
3.9505796e-10
-4.0951953e-10
-4.4925516e-10
3.2829886e-10
3.7709945e-10
-3.7960998e-10
-5.0222092e-10
3.0127815e-10
4.3106371e-10
-4.2073212e-10
-3.8806523e-10
3.4620768e-10
3.1895546e-10
-3.0923218e-10
-4.3324281e-10
2.3938695e-10
3.6721657e-10
-2.7117275e-10
-4.1671319e-10
2.0679041e-10
3.5474024e-10
-3.142574e-10
-3.4409242e-10
2.560027e-10
2.8703124e-10
-3.3687642e-10
-4.4548751e-10
2.8527455e-10
3.9405855e-10
-3.4864546e-10
-3.9719772e-10
3.040752e-10
3.5197358e-10
-3.585756e-10
-4.3022308e-10
3.2127361e-10
3.9162098e-10
-2.6363747e-10
-4.419954e-10
2.3371569e-10
4.102895e-10
-2.9238404e-10
-4.3991855e-10
2.6984377e-10
4.1525117e-10
-3.3917806e-10
-4.3035874e-10
3.2391289e-10
4.1274237e-10
-7.520757e-11
-8.5838911e-11
6.7011104e-11
7.5164993e-11
-5.8162819e-11
-9.6429239e-10
5.6742457e-11
9.6035378e-10
-1.1775838e-09
-7.3953937e-10
1.1825725e-09
7.4204725e-10
-1.0578008e-10
-5.245833e-10
1.167451e-10
5.3317358e-10
-1.7161549e-10
-1.4321604e-09
1.8806758e-10
1.4464022e-09
-2.6497397e-10
-1.366615e-10
2.8637604e-10
1.5606627e-10
-3.8459659e-10
3.0132754e-11
4.1037197e-10
-6.1006375e-12
-5.2852856e-10
-9.3501488e-10
5.5807089e-10
9.6310033e-10
-6.9410234e-10
-8.1643736e-10
7.2678563e-10
8.4797446e-10
-8.7790208e-10
-7.2742077e-10
9.1308943e-10
7.6179104e-10
3.3843151e-11
-6.7200199e-10
3.2094911e-12
7.085795e-10
-1.729288e-10
-6.5456061e-10
2.1121807e-10
6.9272164e-10
-3.8270506e-10
-6.798493e-10
4.2162337e-10
7.1898426e-10
-5.886095e-10
-7.5302335e-10
6.2757694e-10
7.9254559e-10
-7.8283948e-10
-8.796626e-10
8.2131588e-10
9.1901775e-10
1.5284384e-10
4.3790489e-11
-1.1534818e-10
-5.1131841e-12
8.7309606e-12
-2.0813426e-10
2.7353488e-11
2.4567756e-10
-9.575949e-11
-5.3235314e-10
1.3007439e-10
5.6837321e-10
-1.5082619e-10
1.7458352e-10
1.8310017e-10
-1.403984e-10
-1.4754993e-10
-1.4208002e-09
1.7761401e-10
1.4529329e-09
-7.9138646e-11
-8.8214414e-10
1.0691292e-10
9.1211696e-10
5.7339422e-11
-4.2506919e-10
-3.1869575e-11
4.5289446e-10
2.5877038e-10
-3.720075e-11
-2.3528773e-10
6.3042768e-11
-5.959583e-10
-8.0232649e-10
6.1796791e-10
8.26497e-10
-3.0973772e-10
-4.572607e-10
3.305466e-10
4.8016567e-10
-2.5073342e-11
-1.156227e-09
4.5000984e-11
1.1783147e-09
-8.9279966e-10
-5.9659844e-10
9.1215632e-10
6.182163e-10
-7.3785504e-10
2.2472461e-10
7.5640398e-10
-2.0342711e-10
-7.1186221e-10
-7.070283e-10
7.2851374e-10
7.2759346e-10
2.8099416e-10
2.6026822e-10
-2.67347e-10
-2.4740747e-10
1.1636606e-10
-7.726049e-10
-1.043779e-10
7.7264273e-10
1.9028761e-10
-3.6593741e-10
6.3874742e-10
7.5492753e-10
-1.7199185e-10
-7.4406929e-10
8.1382289e-10
1.0962315e-09
-2.3969341e-10
-7.6319908e-10
6.927603e-10
1.0040396e-09
-3.9918137e-10
-8.8169671e-10
8.4421996e-10
1.1032013e-09
-5.0159723e-10
-8.0161251e-10
9.3004843e-10
1.0274625e-09
-4.5452541e-10
-7.2552922e-10
8.1933169e-10
9.3373092e-10
-5.9863881e-10
-7.8117255e-10
8.9531738e-10
9.5511743e-10
-5.070244e-10
-6.6926273e-10
7.3226933e-10
8.027063e-10
-4.3358451e-10
-6.6158381e-10
5.9444207e-10
7.5601293e-10
-4.4288176e-10
-6.4969081e-10
5.5042266e-10
7.0957678e-10
-5.104254e-10
-5.2392642e-10
5.7561456e-10
5.5442791e-10
-4.1654816e-10
-5.1060655e-10
4.4880711e-10
5.1678383e-10
-4.7564766e-10
-4.7144047e-10
4.8149135e-10
4.5771985e-10
-3.2842396e-10
-4.8060182e-10
3.1209712e-10
4.5075816e-10
-3.8434161e-10
-4.9494544e-10
3.4973718e-10
4.52334e-10
-3.8327634e-10
-4.6770923e-10
3.3429849e-10
4.1534468e-10
-4.000312e-10
-4.6486104e-10
3.4023807e-10
4.0548394e-10
-4.0533398e-10
-4.4868667e-10
3.3791941e-10
3.8477925e-10
-3.7955708e-10
-3.920436e-10
3.0739635e-10
3.2583015e-10
-4.238545e-10
-3.8986748e-10
3.4951231e-10
3.2332321e-10
-3.147311e-10
-4.3582049e-10
2.4045497e-10
3.7067037e-10
-2.7838252e-10
-4.1987511e-10
2.0609782e-10
3.5759156e-10
-3.2262816e-10
-4.5864413e-10
2.5393993e-10
4.0045343e-10
-3.4595497e-10
-4.4939817e-10
2.8216066e-10
3.9628906e-10
-2.4710702e-10
-4.0133262e-10
1.8921744e-10
3.5406691e-10
-3.6803703e-10
-4.3450915e-10
3.1680226e-10
3.9364065e-10
-2.7291392e-10
-4.463788e-10
2.2884548e-10
4.1227278e-10
-3.0130719e-10
-4.4436758e-10
2.6470033e-10
4.1722116e-10
-3.4762555e-10
-4.348466e-10
3.1859253e-10
4.1471415e-10
-8.3090191e-11
-9.0331773e-11
6.1594519e-11
7.7145772e-11
-6.5418154e-11
-9.6876302e-10
5.1297095e-11
9.6234431e-10
-1.1841718e-09
-7.4397577e-10
1.1771516e-09
7.4404016e-10
-1.1167814e-10
-5.2898315e-10
1.1139073e-10
5.3515874e-10
-1.7681376e-10
-3.2696337e-10
1.8281292e-10
3.3880697e-10
-2.6947245e-10
-1.409874e-10
2.8124746e-10
1.5799395e-10
-3.884031e-10
2.5842912e-11
4.0539096e-10
-4.2298238e-12
-5.3165653e-10
-9.3926894e-10
5.5325443e-10
9.6489276e-10
-6.9657162e-10
-8.2065454e-10
7.2214763e-10
8.4966502e-10
-8.7973727e-10
-7.3159761e-10
9.0864319e-10
7.6335326e-10
3.2613588e-11
-6.761315e-10
-1.0325354e-12
7.0998428e-10
-1.7358774e-10
-6.5863185e-10
2.0719278e-10
6.9393876e-10
-3.8283438e-10
-6.8384617e-10
4.1782884e-10
7.1998083e-10
-5.8825654e-10
-7.5692319e-10
6.2402966e-10
7.9328465e-10
-7.8206016e-10
-8.8343733e-10
8.1803646e-10
9.1946091e-10
1.5398374e-10
4.0177622e-11
-1.1833375e-10
-5.0075093e-12
1.0154391e-11
-2.1154015e-10
2.4694289e-11
2.4539926e-10
-9.4143699e-11
-5.3550043e-10
1.2778198e-10
5.6766e-10
-1.4912483e-10
1.7175656e-10
1.8122149e-10
-1.4160238e-10
-1.4588701e-10
-3.1367578e-10
1.7620187e-10
3.4161601e-10
-7.765533e-11
2.254491e-10
1.0604972e-10
-1.9982047e-10
-1.0510719e-09
-4.2648353e-10
1.077517e-09
4.4982704e-10
-8.5013507e-10
-3.798816e-11
8.7474472e-10
5.920912e-11
-5.9594465e-10
-8.0243584e-10
6.189688e-10
8.2183018e-10
-3.1047099e-10
-4.5667789e-10
3.3224343e-10
4.7464989e-10
-2.6582948e-11
-4.5459737e-11
4.7481998e-11
6.2452341e-11
-8.9502054e-10
-5.9499546e-10
9.1534202e-10
6.1134205e-10
-7.4061098e-10
2.2617905e-10
7.6019711e-10
-2.1044129e-10
-7.1486861e-10
-7.0765708e-10
7.3377736e-10
7.2190011e-10
2.7705324e-10
2.6554007e-10
-2.6389451e-10
-2.4966621e-10
1.1097034e-10
-7.5546491e-10
-1.0528684e-10
7.7516439e-10
-3.1994843e-10
-3.2504603e-10
4.9657871e-10
5.4420041e-10
-9.2121749e-10
-9.6328391e-10
9.7793744e-10
1.0813512e-09
-6.1572101e-10
-8.7073216e-10
6.3109535e-10
8.8445729e-10
-8.7978809e-10
-1.0865091e-09
9.8431301e-10
1.0957255e-09
-7.8203169e-10
-9.6657677e-10
9.0045626e-10
9.8675409e-10
-6.9140986e-10
-7.4668258e-10
7.6145799e-10
7.6321445e-10
-6.7209848e-10
-8.6716725e-10
6.9491427e-10
8.723833e-10
-6.5469489e-10
-7.2416829e-10
6.3557605e-10
7.1379043e-10
-5.5623503e-10
-7.017928e-10
5.0674609e-10
6.7623735e-10
-6.5580223e-10
-6.8217204e-10
5.8707465e-10
6.4507498e-10
-4.8269093e-10
-5.499255e-10
4.025697e-10
5.0466178e-10
-4.8367048e-10
-5.302527e-10
3.9659115e-10
4.7881568e-10
-5.2885279e-10
-5.9627434e-10
4.3756128e-10
5.4005886e-10
-4.7984447e-10
-4.8969653e-10
3.869037e-10
4.2980271e-10
-4.1367018e-10
-5.0027344e-10
3.2104078e-10
4.3733084e-10
-4.0353229e-10
-4.7015246e-10
3.1229547e-10
4.0473906e-10
-4.1296179e-10
-4.6519468e-10
3.2394424e-10
3.9808025e-10
-4.1238378e-10
-4.4756347e-10
3.2637552e-10
3.7962051e-10
-3.8194422e-10
-5.0086042e-10
2.9973514e-10
4.3312943e-10
-4.226076e-10
-3.8698728e-10
3.449834e-10
3.2062008e-10
-3.1071935e-10
-4.3239864e-10
2.3842618e-10
3.6853789e-10
-2.7233798e-10
-4.1606164e-10
2.0604466e-10
3.5577543e-10
-3.1516074e-10
-3.435957e-10
2.5543015e-10
2.8783264e-10
-3.375687e-10
-4.451126e-10
2.8483967e-10
3.946714e-10
-3.4916948e-10
-3.9691897e-10
3.0374859e-10
3.5243659e-10
-3.5896778e-10
-4.3001865e-10
3.2103129e-10
3.9196691e-10
-2.6392784e-10
-4.4184747e-10
2.3353839e-10
4.1054402e-10
-2.9259637e-10
-4.398129e-10
2.6971626e-10
4.1543685e-10
-3.3933128e-10
-4.3028437e-10
3.2382281e-10
4.1287651e-10
-7.531664e-11
-8.5787865e-11
6.6948627e-11
7.5259925e-11
-5.8239176e-11
-9.6425861e-10
5.6700043e-11
9.6042057e-10
-1.1776363e-09
-7.3951741e-10
1.1825445e-09
7.4209329e-10
-1.0581536e-10
-5.2456975e-10
1.1672744e-10
5.3320453e-10
-1.7163851e-10
-1.4321529e-09
1.8805697e-10
1.4464227e-09
-2.6498844e-10
-1.3665773e-10
2.8637007e-10
1.5607929e-10
-3.8460505e-10
3.0133992e-11
4.1036915e-10
-6.0927296e-12
-5.2853311e-10
-9.350151e-10
5.580704e-10
9.6310483e-10
-6.9410431e-10
-8.1643843e-10
7.2678656e-10
8.4797673e-10
-8.7790238e-10
-7.2742231e-10
9.1309066e-10
7.6179191e-10
3.3843375e-11
-6.7200348e-10
3.210943e-12
7.0857918e-10
-1.7292779e-10
-6.5456198e-10
2.1121968e-10
6.9272105e-10
-3.8270336e-10
-6.798506e-10
4.2162424e-10
7.1898371e-10
-5.8860802e-10
-7.5302482e-10
6.2757797e-10
7.9254475e-10
-7.8283824e-10
-8.7966425e-10
8.2131724e-10
9.1901707e-10
1.5284498e-10
4.3789928e-11
-1.1534735e-10
-5.1137069e-12
8.731965e-12
-2.0813422e-10
2.7354194e-11
2.4567717e-10
-9.5758686e-11
-5.3235384e-10
1.3007496e-10
5.683725e-10
-1.5082548e-10
1.7458292e-10
1.831005e-10
-1.4039902e-10
-1.4754935e-10
-1.4208003e-09
1.7761421e-10
1.4529332e-09
-7.9138166e-11
-8.821446e-10
1.0691314e-10
9.1211688e-10
5.733974e-11
-4.2506958e-10
-3.1869469e-11
4.5289401e-10
2.5877061e-10
-3.7200712e-11
-2.3528766e-10
6.3043204e-11
-5.9595811e-10
-8.0232642e-10
6.1796791e-10
8.2649705e-10
-3.0973761e-10
-4.5726063e-10
3.305466e-10
4.801653e-10
-2.5073306e-11
-1.1562269e-09
4.5000955e-11
1.1783148e-09
-8.9279967e-10
-5.9659835e-10
9.1215624e-10
6.1821643e-10
-7.3785512e-10
2.2472475e-10
7.564039e-10
-2.0342698e-10
-7.1186229e-10
-7.0702816e-10
7.2851361e-10
7.2759362e-10
2.8099416e-10
2.6026826e-10
-2.673471e-10
-2.4740738e-10
1.1636614e-10
-7.7260494e-10
-1.0437786e-10
7.7264266e-10
)
;

boundaryField
{
    movingWall
    {
        type            calculated;
        value           nonuniform List<scalar> 
16
(
3.8201582e-11
4.4160594e-11
3.8201633e-11
4.4160668e-11
-2.9257627e-10
-3.138636e-10
-2.9257627e-10
-3.1386365e-10
-3.4423931e-11
-3.2173068e-11
-3.4423804e-11
-3.2172985e-11
3.1331915e-10
3.0819606e-10
3.1331914e-10
3.08196e-10
)
;
    }
    CPLReceiveMD
    {
        type            calculated;
        value           nonuniform List<scalar> 
16
(
4.62732e-09
-8.4560832e-10
-3.6849021e-10
-8.6202912e-10
-6.4313866e-10
-7.3413369e-10
-7.8945773e-10
-7.2364577e-10
1.0180798e-09
1.0882993e-09
1.234782e-09
1.0674392e-09
1.3520034e-09
9.4851512e-10
1.1976386e-09
9.5505901e-10
)
;
    }
    streamwiseIn
    {
        type            cyclic;
    }
    streamwiseOut
    {
        type            cyclic;
    }
    front
    {
        type            cyclic;
    }
    back
    {
        type            cyclic;
    }
}


// ************************************************************************* //
