/*--------------------------------*- C++ -*----------------------------------*\
| =========                 |                                                 |
| \\      /  F ield         | OpenFOAM: The Open Source CFD Toolbox           |
|  \\    /   O peration     | Version:  3.0.x                                 |
|   \\  /    A nd           | Web:      www.OpenFOAM.org                      |
|    \\/     M anipulation  |                                                 |
\*---------------------------------------------------------------------------*/
FoamFile
{
    version     2.0;
    format      ascii;
    class       volScalarField;
    location    "450";
    object      sigmaxy;
}
// * * * * * * * * * * * * * * * * * * * * * * * * * * * * * * * * * * * * * //

dimensions      [0 2 -2 0 0 0 0];

internalField   nonuniform List<scalar> 
960
(
0.0029997982
0.0029997948
0.0029997922
0.0029997956
-0.0065404898
-0.0065404827
-0.006540486
-0.0065404911
-0.0062107208
-0.0062107209
-0.0062107242
-0.0062107215
-0.0037124125
-0.0037124197
-0.0037124219
-0.003712414
-0.0018610794
-0.0018610928
-0.0018610939
-0.0018610812
-0.00073193849
-0.00073194904
-0.00073194964
-0.00073194041
1.4683583e-05
1.4680114e-05
1.467867e-05
1.4681479e-05
0.00059134919
0.00059134918
0.00059134756
0.00059134758
0.0010829534
0.0010829529
0.0010829518
0.0010829523
0.001521342
0.0015213396
0.0015213371
0.0015213395
0.0019251369
0.0019251325
0.0019251293
0.0019251343
0.0023095891
0.002309583
0.0023095798
0.0023095871
0.0026862645
0.002686257
0.0026862537
0.0026862625
0.003062356
0.0030623478
0.0030623444
0.003062354
0.0034414555
0.0034414472
0.003441443
0.0034414526
0.003824977
0.0038249685
0.0038249642
0.003824974
0.0042134173
0.0042134091
0.0042134047
0.0042134141
0.0046071258
0.0046071178
0.0046071131
0.0046071224
0.0050066348
0.0050066276
0.0050066227
0.0050066312
0.0054127111
0.0054127046
0.0054127001
0.0054127079
0.0058262722
0.0058262664
0.0058262616
0.0058262694
0.0062482645
0.0062482593
0.0062482542
0.0062482607
0.00667955
0.0066795455
0.00667954
0.0066795458
0.0071208273
0.0071208236
0.0071208172
0.0071208242
0.0075725814
0.0075725785
0.0075725718
0.007572578
0.0080350545
0.0080350519
0.0080350456
0.0080350509
0.0085082394
0.0085082372
0.0085082307
0.0085082362
0.0089918845
0.0089918835
0.0089918762
0.0089918812
0.009485507
0.0094855072
0.0094854972
0.0094855062
0.0099884113
0.0099884103
0.0099884074
0.0099884091
0.010499703
0.010499707
0.010499701
0.010499697
0.011018316
0.01101832
0.011018308
0.011018316
0.011543031
0.011543024
0.011543025
0.011543025
0.012072469
0.012072469
0.012072464
0.012072464
0.012605143
0.012605151
0.01260514
0.012605145
0.013139462
0.013139471
0.013139467
0.013139464
0.013673735
0.013673745
0.013673741
0.013673738
0.014206185
0.014206189
0.014206186
0.014206181
0.014734955
0.014734961
0.014734958
0.014734959
0.015258144
0.015258151
0.01525815
0.01525815
0.015773798
0.015773805
0.015773805
0.015773797
0.016279926
0.016279935
0.016279936
0.016279927
0.016774523
0.016774532
0.016774534
0.016774525
0.017255566
0.01725557
0.017255573
0.017255569
0.017721035
0.017721039
0.017721044
0.01772104
0.018168935
0.018168946
0.018168952
0.018168941
0.018597311
0.018597316
0.018597322
0.018597311
0.019004234
0.019004245
0.019004246
0.019004242
0.019387862
0.019387873
0.019387875
0.01938787
0.019746417
0.019746421
0.019746431
0.019746413
0.020078203
0.020078207
0.020078217
0.020078199
0.020381641
0.020381644
0.020381654
0.020381644
0.020655264
0.020655273
0.020655276
0.020655274
0.020897752
0.020897753
0.020897756
0.020897754
0.021107896
0.021107896
0.021107904
0.02110789
0.021284652
0.021284651
0.021284657
0.021284645
0.021427135
0.021427133
0.021427144
0.021427133
0.021534632
0.021534628
0.021534644
0.021534635
0.021606601
0.021606602
0.021606617
0.021606609
0.021642672
0.021642679
0.021642699
0.021642679
0.0029997949
0.0029997936
0.0029997896
0.0029997915
-0.0065404899
-0.0065404843
-0.0065404866
-0.0065404902
-0.0062107195
-0.0062107215
-0.0062107235
-0.0062107189
-0.0037124124
-0.0037124202
-0.0037124212
-0.0037124129
-0.0018610787
-0.0018610932
-0.001861094
-0.0018610801
-0.00073193909
-0.00073195001
-0.00073195037
-0.00073194076
1.4682987e-05
1.4679215e-05
1.4678606e-05
1.4681056e-05
0.00059134925
0.000591349
0.00059134751
0.00059134776
0.0010829535
0.0010829534
0.0010829518
0.0010829518
0.001521342
0.0015213395
0.0015213371
0.0015213402
0.0019251376
0.0019251324
0.0019251299
0.0019251357
0.0023095891
0.0023095837
0.0023095804
0.0023095872
0.0026862645
0.0026862576
0.0026862537
0.0026862625
0.0030623567
0.0030623478
0.0030623444
0.003062354
0.0034414555
0.0034414465
0.003441443
0.0034414527
0.003824977
0.0038249685
0.0038249642
0.003824974
0.0042134173
0.0042134091
0.0042134046
0.0042134142
0.0046071258
0.0046071178
0.0046071138
0.0046071224
0.0050066348
0.0050066276
0.0050066227
0.0050066312
0.0054127111
0.0054127046
0.0054126994
0.0054127079
0.0058262722
0.0058262664
0.0058262615
0.0058262694
0.0062482645
0.0062482593
0.0062482535
0.0062482607
0.0066795493
0.0066795455
0.0066795394
0.0066795458
0.0071208273
0.0071208236
0.0071208178
0.0071208236
0.007572582
0.0075725785
0.0075725724
0.007572578
0.0080350545
0.0080350519
0.0080350456
0.0080350515
0.0085082394
0.0085082372
0.0085082307
0.0085082362
0.0089918846
0.0089918835
0.0089918762
0.0089918812
0.0094855077
0.0094855079
0.0094854978
0.0094855068
0.0099884119
0.0099884109
0.0099884081
0.0099884097
0.010499703
0.010499707
0.010499701
0.010499697
0.011018316
0.01101832
0.011018308
0.011018316
0.011543025
0.011543024
0.011543025
0.011543025
0.012072469
0.012072469
0.012072464
0.012072464
0.01260515
0.012605151
0.01260514
0.012605145
0.013139462
0.013139471
0.013139467
0.013139464
0.013673735
0.013673745
0.013673741
0.013673738
0.014206185
0.014206189
0.014206186
0.014206181
0.014734955
0.014734961
0.014734958
0.014734959
0.015258144
0.015258151
0.01525815
0.01525815
0.015773798
0.015773805
0.015773805
0.015773797
0.016279926
0.016279935
0.016279936
0.016279927
0.016774523
0.016774532
0.016774534
0.016774525
0.017255566
0.01725557
0.017255573
0.017255569
0.017721035
0.017721039
0.017721044
0.01772104
0.018168935
0.018168946
0.018168952
0.018168941
0.018597311
0.018597316
0.018597322
0.018597311
0.019004234
0.019004245
0.019004253
0.019004242
0.019387862
0.019387873
0.019387881
0.01938787
0.019746417
0.019746421
0.019746424
0.01974642
0.020078203
0.020078207
0.02007821
0.020078206
0.020381641
0.020381644
0.020381654
0.020381637
0.020655271
0.020655273
0.020655283
0.020655267
0.020897752
0.020897753
0.020897762
0.020897754
0.021107889
0.021107896
0.021107897
0.02110789
0.021284652
0.021284651
0.02128465
0.021284645
0.021427135
0.021427133
0.021427144
0.021427133
0.021534632
0.021534628
0.021534644
0.021534635
0.021606601
0.021606602
0.021606617
0.021606609
0.021642672
0.021642679
0.021642699
0.021642679
0.0029997982
0.0029997956
0.0029997922
0.0029997948
-0.0065404898
-0.0065404837
-0.006540486
-0.0065404901
-0.0062107208
-0.0062107222
-0.0062107242
-0.0062107202
-0.0037124125
-0.0037124208
-0.0037124219
-0.0037124129
-0.0018610794
-0.0018610932
-0.0018610939
-0.0018610808
-0.00073193848
-0.0007319493
-0.00073194965
-0.00073194081
1.4683588e-05
1.4679923e-05
1.4678665e-05
1.468167e-05
0.00059134919
0.00059134904
0.00059134756
0.00059134838
0.0010829534
0.0010829528
0.0010829518
0.0010829518
0.001521342
0.0015213395
0.0015213371
0.0015213395
0.0019251369
0.0019251325
0.0019251293
0.001925135
0.0023095891
0.002309583
0.0023095798
0.0023095872
0.0026862645
0.002686257
0.0026862537
0.0026862625
0.003062356
0.0030623478
0.0030623444
0.003062354
0.0034414555
0.0034414472
0.003441443
0.0034414527
0.003824977
0.0038249685
0.0038249642
0.003824974
0.0042134173
0.0042134091
0.0042134047
0.0042134142
0.0046071258
0.0046071178
0.0046071131
0.0046071224
0.0050066348
0.0050066276
0.0050066227
0.0050066312
0.0054127111
0.0054127046
0.0054127001
0.0054127079
0.0058262722
0.0058262664
0.0058262616
0.0058262694
0.0062482645
0.0062482593
0.0062482542
0.0062482607
0.00667955
0.0066795455
0.00667954
0.0066795458
0.0071208273
0.0071208236
0.0071208172
0.0071208242
0.0075725814
0.0075725785
0.0075725718
0.007572578
0.0080350545
0.0080350519
0.0080350456
0.0080350509
0.0085082394
0.0085082372
0.0085082307
0.0085082362
0.0089918845
0.0089918835
0.0089918762
0.0089918812
0.009485507
0.0094855072
0.0094854972
0.0094855062
0.0099884113
0.0099884103
0.0099884074
0.0099884091
0.010499703
0.010499707
0.010499701
0.010499697
0.011018316
0.01101832
0.011018308
0.011018316
0.011543031
0.011543024
0.011543025
0.011543025
0.012072469
0.012072469
0.012072464
0.012072464
0.012605143
0.012605151
0.01260514
0.012605145
0.013139462
0.013139471
0.013139467
0.013139464
0.013673735
0.013673745
0.013673741
0.013673738
0.014206185
0.014206189
0.014206186
0.014206181
0.014734955
0.014734961
0.014734958
0.014734959
0.015258144
0.015258151
0.01525815
0.01525815
0.015773798
0.015773805
0.015773805
0.015773797
0.016279926
0.016279935
0.016279936
0.016279927
0.016774523
0.016774532
0.016774534
0.016774525
0.017255566
0.01725557
0.017255573
0.017255569
0.017721035
0.017721039
0.017721044
0.01772104
0.018168935
0.018168946
0.018168952
0.018168941
0.018597311
0.018597316
0.018597322
0.018597311
0.019004234
0.019004245
0.019004246
0.019004242
0.019387862
0.019387873
0.019387875
0.01938787
0.019746417
0.019746421
0.019746431
0.019746413
0.020078203
0.020078207
0.020078217
0.020078199
0.020381641
0.020381644
0.020381654
0.020381644
0.020655264
0.020655273
0.020655276
0.020655274
0.020897752
0.020897753
0.020897756
0.020897754
0.021107896
0.021107896
0.021107904
0.02110789
0.021284652
0.021284651
0.021284657
0.021284645
0.021427135
0.021427133
0.021427144
0.021427133
0.021534632
0.021534628
0.021534644
0.021534635
0.021606601
0.021606602
0.021606617
0.021606609
0.021642672
0.021642679
0.021642699
0.021642679
0.0029997949
0.0029997936
0.0029997896
0.0029997915
-0.0065404899
-0.0065404843
-0.0065404866
-0.0065404902
-0.0062107195
-0.0062107215
-0.0062107235
-0.0062107189
-0.0037124124
-0.0037124202
-0.0037124212
-0.0037124129
-0.0018610787
-0.0018610932
-0.001861094
-0.0018610801
-0.00073193909
-0.00073195001
-0.00073195037
-0.00073194076
1.4682988e-05
1.4679212e-05
1.4678604e-05
1.4681059e-05
0.00059134925
0.000591349
0.0005913475
0.00059134776
0.0010829535
0.0010829534
0.0010829518
0.0010829518
0.001521342
0.0015213395
0.0015213371
0.0015213402
0.0019251376
0.0019251324
0.0019251299
0.0019251357
0.0023095891
0.0023095837
0.0023095804
0.0023095872
0.0026862645
0.0026862576
0.0026862537
0.0026862625
0.0030623567
0.0030623478
0.0030623444
0.003062354
0.0034414555
0.0034414465
0.003441443
0.0034414527
0.003824977
0.0038249685
0.0038249642
0.003824974
0.0042134173
0.0042134091
0.0042134046
0.0042134142
0.0046071258
0.0046071178
0.0046071138
0.0046071224
0.0050066348
0.0050066276
0.0050066227
0.0050066312
0.0054127111
0.0054127046
0.0054126994
0.0054127079
0.0058262722
0.0058262664
0.0058262615
0.0058262694
0.0062482645
0.0062482593
0.0062482535
0.0062482607
0.0066795493
0.0066795455
0.0066795394
0.0066795458
0.0071208273
0.0071208236
0.0071208178
0.0071208236
0.007572582
0.0075725785
0.0075725724
0.007572578
0.0080350545
0.0080350519
0.0080350456
0.0080350515
0.0085082394
0.0085082372
0.0085082307
0.0085082362
0.0089918846
0.0089918835
0.0089918762
0.0089918812
0.0094855077
0.0094855079
0.0094854978
0.0094855068
0.0099884119
0.0099884109
0.0099884081
0.0099884097
0.010499703
0.010499707
0.010499701
0.010499697
0.011018316
0.01101832
0.011018308
0.011018316
0.011543025
0.011543024
0.011543025
0.011543025
0.012072469
0.012072469
0.012072464
0.012072464
0.01260515
0.012605151
0.01260514
0.012605145
0.013139462
0.013139471
0.013139467
0.013139464
0.013673735
0.013673745
0.013673741
0.013673738
0.014206185
0.014206189
0.014206186
0.014206181
0.014734955
0.014734961
0.014734958
0.014734959
0.015258144
0.015258151
0.01525815
0.01525815
0.015773798
0.015773805
0.015773805
0.015773797
0.016279926
0.016279935
0.016279936
0.016279927
0.016774523
0.016774532
0.016774534
0.016774525
0.017255566
0.01725557
0.017255573
0.017255569
0.017721035
0.017721039
0.017721044
0.01772104
0.018168935
0.018168946
0.018168952
0.018168941
0.018597311
0.018597316
0.018597322
0.018597311
0.019004234
0.019004245
0.019004253
0.019004242
0.019387862
0.019387873
0.019387881
0.01938787
0.019746417
0.019746421
0.019746424
0.01974642
0.020078203
0.020078207
0.02007821
0.020078206
0.020381641
0.020381644
0.020381654
0.020381637
0.020655271
0.020655273
0.020655283
0.020655267
0.020897752
0.020897753
0.020897762
0.020897754
0.021107889
0.021107896
0.021107897
0.02110789
0.021284652
0.021284651
0.02128465
0.021284645
0.021427135
0.021427133
0.021427144
0.021427133
0.021534632
0.021534628
0.021534644
0.021534635
0.021606601
0.021606602
0.021606617
0.021606609
0.021642672
0.021642679
0.021642699
0.021642679
)
;

boundaryField
{
    movingWall
    {
        type            calculated;
        value           nonuniform List<scalar> 
16
(
0.021651701
0.021651701
0.021651701
0.021651701
0.021651701
0.021651701
0.021651701
0.021651701
0.021651728
0.021651728
0.021651728
0.021651728
0.021651701
0.021651701
0.021651701
0.021651701
)
;
    }
    CPLReceiveMD
    {
        type            calculated;
        value           nonuniform List<scalar> 
16
(
0.011525369
0.011525367
0.011525369
0.011525367
0.011525351
0.01152535
0.011525353
0.01152535
0.011525347
0.011525345
0.011525347
0.011525345
0.011525366
0.011525361
0.011525364
0.011525361
)
;
    }
    streamwiseIn
    {
        type            cyclic;
    }
    streamwiseOut
    {
        type            cyclic;
    }
    front
    {
        type            cyclic;
    }
    back
    {
        type            cyclic;
    }
}


// ************************************************************************* //
