/*--------------------------------*- C++ -*----------------------------------*\
| =========                 |                                                 |
| \\      /  F ield         | OpenFOAM: The Open Source CFD Toolbox           |
|  \\    /   O peration     | Version:  3.0.x                                 |
|   \\  /    A nd           | Web:      www.OpenFOAM.org                      |
|    \\/     M anipulation  |                                                 |
\*---------------------------------------------------------------------------*/
FoamFile
{
    version     2.0;
    format      ascii;
    class       volScalarField;
    location    "450";
    object      sigmaxz;
}
// * * * * * * * * * * * * * * * * * * * * * * * * * * * * * * * * * * * * * //

dimensions      [0 2 -2 0 0 0 0];

internalField   nonuniform List<scalar> 
960
(
1.5808467e-13
-2.9705876e-12
-1.5808467e-13
2.9705876e-12
5.1245041e-13
-3.2474563e-12
-5.1245041e-13
3.2474563e-12
6.7146287e-13
-2.8104446e-12
-6.7146171e-13
2.8104446e-12
5.4390917e-13
-2.0313906e-12
-5.4390917e-13
2.0313906e-12
3.5447374e-13
-1.2200003e-12
-3.5447374e-13
1.2200014e-12
1.4672918e-13
-6.2989501e-13
-1.4673034e-13
6.2989618e-13
-4.0499337e-14
-2.2939103e-13
4.0498172e-14
2.2939219e-13
-1.7008767e-13
4.5204011e-14
1.7008767e-13
-4.5204011e-14
-2.5102264e-13
2.2000914e-13
2.510238e-13
-2.2000914e-13
-2.9595924e-13
3.1894501e-13
2.9595924e-13
-3.1894384e-13
-3.1171536e-13
3.6240772e-13
3.1171536e-13
-3.6240889e-13
-3.0660056e-13
3.6580277e-13
3.0660056e-13
-3.6580277e-13
-2.8829445e-13
3.3241248e-13
2.8829445e-13
-3.3241132e-13
-2.5781767e-13
2.942458e-13
2.5781767e-13
-2.9424464e-13
-2.2371395e-13
2.5332597e-13
2.2371395e-13
-2.533248e-13
-1.8943322e-13
2.1266622e-13
1.8943322e-13
-2.1266622e-13
-1.5744105e-13
1.7489728e-13
1.5744105e-13
-1.7489728e-13
-1.2842649e-13
1.4136847e-13
1.2842649e-13
-1.4136614e-13
-1.0308422e-13
1.1261441e-13
1.0308422e-13
-1.1261441e-13
-8.1597839e-14
8.8546934e-14
8.1597839e-14
-8.8546934e-14
-6.3789739e-14
6.883967e-14
6.3789739e-14
-6.8837342e-14
-4.9309961e-14
5.2949734e-14
4.9309961e-14
-5.2949734e-14
-3.7726081e-14
4.0317255e-14
3.7726081e-14
-4.0317255e-14
-2.8597666e-14
3.0446916e-14
2.8597666e-14
-3.0446916e-14
-2.1504002e-14
2.2834692e-14
2.1504002e-14
-2.2834692e-14
-1.6048485e-14
1.7004295e-14
1.6048485e-14
-1.6999639e-14
-1.1896002e-14
1.2553389e-14
1.1896002e-14
-1.2553389e-14
-8.8186852e-15
9.1831772e-15
8.814029e-15
-9.1831772e-15
-6.5011608e-15
6.6540015e-15
6.5011608e-15
-6.6540015e-15
-4.7609713e-15
4.7773338e-15
4.7609713e-15
-4.7726776e-15
-3.4651389e-15
3.3844798e-15
3.4651389e-15
-3.3844798e-15
-2.502775e-15
2.3682147e-15
2.502775e-15
-2.3682147e-15
-1.7930428e-15
1.6297518e-15
1.7930428e-15
-1.6297518e-15
-1.2757844e-15
1.097199e-15
1.2757844e-15
-1.097199e-15
-9.0233737e-16
7.2619653e-16
9.0233737e-16
-7.1688426e-16
-6.329408e-16
4.4765487e-16
6.4225307e-16
-4.4765487e-16
-4.3961654e-16
2.5910532e-16
4.3961654e-16
-2.5910532e-16
-3.0197877e-16
1.289855e-16
3.1129104e-16
-1.289855e-16
-2.043024e-16
4.1264218e-17
2.043024e-16
-4.1264218e-17
-1.3596016e-16
-7.0639532e-18
1.3596016e-16
1.6376225e-17
-8.8156653e-17
-4.2114391e-17
8.8156653e-17
5.1426663e-17
-5.5442449e-17
-7.1165737e-17
5.5442449e-17
7.1165737e-17
-3.3292791e-17
-7.1439765e-17
3.3292791e-17
8.0752036e-17
-1.8831782e-17
-8.4342865e-17
1.8831782e-17
8.4342865e-17
-9.5112346e-18
-8.3038064e-17
9.5112346e-18
8.3038064e-17
1.627126e-17
-7.8417305e-17
2.3532838e-18
7.8417305e-17
1.5987202e-18
-5.3015028e-17
-1.5987202e-18
7.1639571e-17
3.848472e-18
-6.2736959e-17
-3.848472e-18
6.2736959e-17
5.815427e-18
-5.2150746e-17
-2.4439971e-17
5.2150746e-17
6.609591e-18
-2.5096471e-17
1.2014953e-17
4.3721015e-17
6.74661e-18
-3.7094811e-17
-6.74661e-18
3.7094811e-17
5.7651588e-18
-2.9799343e-17
-5.7651588e-18
2.9799343e-17
2.2559387e-17
-3.5834941e-18
-3.9348431e-18
2.2208038e-17
-5.1011526e-20
-1.5688277e-17
5.1011526e-20
1.5688277e-17
-4.0336239e-18
-9.8028272e-18
4.0336239e-18
9.8028272e-18
-8.0510527e-18
-3.9982369e-18
8.0510527e-18
3.9982369e-18
-9.9167098e-18
2.2297814e-19
9.9167098e-18
-2.2297814e-19
-7.9876347e-18
2.2818083e-17
7.9876347e-18
-4.1935397e-18
-2.9526404e-18
2.3930602e-18
2.9526404e-18
-2.3930602e-18
5.7724729e-18
-5.7999328e-18
-5.7724729e-18
5.7999328e-18
-2.7009461e-12
3.9151516e-10
2.7009461e-12
-3.9151516e-10
-2.6805158e-12
3.4586502e-10
2.6805147e-12
-3.4586502e-10
-2.6412179e-12
2.8491382e-10
2.6412179e-12
-2.8491382e-10
-2.1034542e-12
8.7528607e-11
2.103453e-12
-8.7528607e-11
-1.5592204e-12
7.0529275e-11
1.5592204e-12
-7.0529275e-11
-1.0471313e-12
5.7051778e-11
1.0471313e-12
-5.7051778e-11
-5.6808756e-13
4.5125965e-11
5.6808756e-13
-2.1155998e-10
-2.2383711e-13
3.4724805e-11
2.2383711e-13
-3.4724805e-11
-3.5821593e-14
2.608727e-11
3.5821593e-14
-2.608727e-11
5.6632502e-14
1.9229625e-11
-5.6631338e-14
-1.8566364e-10
1.0442619e-13
1.3945018e-11
-1.0442619e-13
-1.3945017e-11
1.2625002e-13
9.954836e-12
-1.2625002e-13
-9.954836e-12
1.1210529e-13
7.010814e-12
-1.1210529e-13
-7.010814e-12
7.0910044e-14
4.8882281e-12
-7.0910044e-14
-4.8882281e-12
4.1346204e-14
3.3774525e-12
-4.1346204e-14
-3.3774525e-12
2.7946268e-14
2.3159947e-12
-2.7946268e-14
-2.3159947e-12
2.340728e-14
1.5788618e-12
-2.340728e-14
-1.5788618e-12
1.8695699e-14
1.0719109e-12
-1.8695699e-14
-1.0719109e-12
1.4197654e-14
7.2585535e-13
-1.4197654e-14
-7.2585535e-13
1.0411896e-14
4.9081742e-13
-1.0411896e-14
-4.9081742e-13
7.3271244e-15
3.3169823e-13
-7.3271244e-15
-3.3169823e-13
4.8901143e-15
2.2415262e-13
-4.8901143e-15
-2.2415262e-13
3.0123558e-15
1.515084e-13
-3.0123558e-15
-1.515084e-13
1.579825e-15
1.0246625e-13
-1.5751688e-15
-1.0246625e-13
5.3921292e-16
6.9300794e-14
-5.3921292e-16
-6.9300794e-14
-2.7776173e-16
4.6940633e-14
2.7776173e-16
-4.6940633e-14
-8.4896327e-16
3.1856203e-14
8.4896327e-16
-3.1856203e-14
-9.2168827e-16
2.1723006e-14
9.2168827e-16
-2.1723006e-14
-7.1867373e-16
1.4862118e-14
7.1867373e-16
-1.4862118e-14
-4.9632121e-16
1.0199331e-14
4.9632121e-16
-1.0199331e-14
-2.4948958e-16
7.032631e-15
2.4948958e-16
-7.032631e-15
-6.6803285e-17
4.8779679e-15
6.6803285e-17
-4.8779679e-15
2.8563406e-17
3.4063401e-15
-2.8563406e-17
-3.4063401e-15
3.935137e-17
2.3974404e-15
-4.8663642e-17
-2.3974404e-15
3.5875518e-17
1.7038416e-15
-3.5875518e-17
-1.7038416e-15
1.8639777e-17
1.2248061e-15
-1.8639777e-17
-1.2248061e-15
4.6261999e-18
8.9257081e-16
-4.6261999e-18
-8.9257081e-16
-4.2735262e-18
6.595324e-16
4.2735262e-18
-6.595324e-16
-1.0598185e-17
4.9434697e-16
1.0598185e-17
-4.9434697e-16
-1.4548497e-17
3.7574692e-16
1.4548497e-17
-3.7574692e-16
-1.7050998e-17
2.8839453e-16
1.7050998e-17
-2.8839453e-16
-1.9132921e-17
2.2275878e-16
1.9132921e-17
-2.2275878e-16
-2.1367831e-17
1.7289665e-16
2.1367831e-17
-1.7289665e-16
-2.2624291e-17
1.3438864e-16
2.2624291e-17
-1.3438864e-16
-2.3642052e-17
1.0475279e-16
2.3642052e-17
-1.0475279e-16
-2.3284352e-17
8.1042314e-17
2.3284352e-17
-8.1042314e-17
-2.3544255e-17
6.1861376e-17
2.3544255e-17
-6.1861376e-17
-2.1864853e-17
4.7037348e-17
2.1864853e-17
-4.7037348e-17
-2.0151697e-17
3.4582009e-17
2.0151697e-17
-3.4582009e-17
-1.7491067e-17
2.4967665e-17
-1.133477e-18
-2.4967665e-17
-1.5616965e-17
1.6713688e-17
1.5616965e-17
-3.5338232e-17
-1.4355714e-17
9.3503179e-18
1.4355714e-17
-9.3503179e-18
-1.3687756e-17
4.7055107e-18
1.3687756e-17
-4.7055107e-18
-1.1745295e-17
1.7300666e-18
-6.8792486e-18
-1.7300666e-18
-1.0617751e-17
4.3410485e-19
1.0617751e-17
-4.3410485e-19
-8.6913856e-18
1.1741304e-18
8.6913856e-18
-1.1741304e-18
-6.297938e-18
2.6435377e-18
6.297938e-18
-2.6435377e-18
-4.3644358e-18
3.436827e-18
4.3644358e-18
-3.436827e-18
-3.4096771e-18
3.7928916e-18
3.4096771e-18
-3.7928916e-18
-5.9081301e-18
5.2282981e-18
5.9081301e-18
-5.2282981e-18
-1.5808467e-13
2.9705876e-12
1.5808467e-13
-2.9705876e-12
-5.1245041e-13
3.2474563e-12
5.1245041e-13
-3.2474563e-12
-6.7146171e-13
2.8104446e-12
6.7146171e-13
-2.8104446e-12
-5.4390919e-13
2.0313906e-12
5.4390919e-13
-2.0313906e-12
-3.5447374e-13
1.2200014e-12
3.5447374e-13
-1.2200014e-12
-1.4673034e-13
6.2989618e-13
1.4673034e-13
-6.2989618e-13
4.0498172e-14
2.2939219e-13
-4.0498172e-14
-2.2939219e-13
1.7008767e-13
-4.5204011e-14
-1.7008767e-13
4.5204011e-14
2.5102265e-13
-2.2000914e-13
-2.5102265e-13
2.2000914e-13
2.9595924e-13
-3.1894501e-13
-2.9595924e-13
3.1894501e-13
3.1171536e-13
-3.624089e-13
-3.1171536e-13
3.624089e-13
3.0660056e-13
-3.6580276e-13
-3.0660056e-13
3.6580276e-13
2.8829445e-13
-3.3241132e-13
-2.8829445e-13
3.3241132e-13
2.5781767e-13
-2.9424464e-13
-2.5781767e-13
2.9424464e-13
2.2371513e-13
-2.533248e-13
-2.2371396e-13
2.533248e-13
1.8943322e-13
-2.1266622e-13
-1.8943322e-13
2.1266622e-13
1.5744105e-13
-1.7489728e-13
-1.5744105e-13
1.7489728e-13
1.2842649e-13
-1.4136614e-13
-1.2842649e-13
1.4136614e-13
1.030842e-13
-1.1261441e-13
-1.030842e-13
1.1261441e-13
8.1597841e-14
-8.8546934e-14
-8.1597841e-14
8.8546934e-14
6.3789739e-14
-6.8837342e-14
-6.3789739e-14
6.8837342e-14
4.930996e-14
-5.2949732e-14
-4.930996e-14
5.2949732e-14
3.7726079e-14
-4.0317255e-14
-3.7726079e-14
4.0317255e-14
2.8597666e-14
-3.0446916e-14
-2.8597666e-14
3.0446916e-14
2.1504004e-14
-2.2834692e-14
-2.1504004e-14
2.2834692e-14
1.6048485e-14
-1.699964e-14
-1.6048485e-14
1.699964e-14
1.1896003e-14
-1.255339e-14
-1.1896003e-14
1.255339e-14
8.8140292e-15
-9.1831772e-15
-8.8140292e-15
9.1831772e-15
6.5011608e-15
-6.6540013e-15
-6.5011608e-15
6.6540013e-15
4.7609713e-15
-4.7726776e-15
-4.7609713e-15
4.7726776e-15
3.4651387e-15
-3.3844796e-15
-3.4651387e-15
3.3844796e-15
2.5027749e-15
-2.3682147e-15
-2.5027749e-15
2.3682147e-15
1.7930429e-15
-1.6297518e-15
-1.7930429e-15
1.6297518e-15
1.2757843e-15
-1.097199e-15
-1.2757843e-15
1.097199e-15
9.0233737e-16
-7.1688427e-16
-9.0233737e-16
7.1688427e-16
6.329408e-16
-4.4765487e-16
-6.329408e-16
4.4765487e-16
4.3961654e-16
-2.5910532e-16
-4.3961654e-16
2.5910532e-16
3.0197877e-16
-1.289855e-16
-3.0197877e-16
1.289855e-16
2.043024e-16
-4.1264235e-17
-2.043024e-16
4.1264235e-17
1.3596015e-16
1.6376225e-17
-1.3596015e-16
-1.6376225e-17
8.8156653e-17
5.1426679e-17
-8.8156653e-17
-5.1426679e-17
5.5442466e-17
7.1165737e-17
-5.5442466e-17
-7.1165737e-17
3.3292798e-17
8.0752053e-17
-3.3292798e-17
-8.0752053e-17
1.8831782e-17
8.4342875e-17
-1.8831782e-17
-8.4342875e-17
9.5112346e-18
8.3038059e-17
-9.5112346e-18
-8.3038059e-17
2.3532838e-18
7.8417307e-17
-2.3532838e-18
-7.8417307e-17
-1.5987185e-18
7.1639571e-17
1.5987185e-18
-7.1639571e-17
-3.8484737e-18
6.2736959e-17
3.8484737e-18
-6.2736959e-17
-5.8154268e-18
5.2150747e-17
5.8154268e-18
-5.2150747e-17
-6.6095909e-18
4.3721016e-17
6.6095909e-18
-4.3721016e-17
-6.7466092e-18
3.7094812e-17
6.7466092e-18
-1.8470269e-17
-5.7651581e-18
2.9799343e-17
5.7651581e-18
-2.9799343e-17
-3.934843e-18
2.2208039e-17
3.934843e-18
-2.2208039e-17
5.1011526e-20
1.5688278e-17
-5.1011526e-20
-1.5688278e-17
4.0336229e-18
9.8028275e-18
-4.0336229e-18
-9.8028275e-18
8.0510521e-18
3.9982375e-18
-8.0510521e-18
-3.9982375e-18
9.9167095e-18
-2.2297764e-19
-9.9167095e-18
2.2297764e-19
7.9876347e-18
-4.1935393e-18
-7.9876347e-18
4.1935393e-18
2.9526401e-18
-2.3930593e-18
-2.9526401e-18
2.3930593e-18
-5.7724732e-18
5.7999328e-18
5.7724732e-18
-5.7999328e-18
2.7009461e-12
-3.9151516e-10
-2.7009461e-12
3.9151516e-10
2.6805158e-12
-3.4586502e-10
-2.6805147e-12
3.4586502e-10
2.6412179e-12
-2.8491382e-10
-2.6412168e-12
2.8491382e-10
2.1034542e-12
-8.7528607e-11
-2.103453e-12
8.7528607e-11
1.5592204e-12
-7.0529275e-11
-1.5592204e-12
7.0529275e-11
1.0471324e-12
-5.7051778e-11
-1.0471313e-12
5.7051779e-11
5.6808872e-13
-4.5125965e-11
-5.6808756e-13
2.1155998e-10
2.2383827e-13
-3.4724805e-11
-2.2383711e-13
3.4724806e-11
3.5821593e-14
-2.608727e-11
-3.5821593e-14
2.608727e-11
-5.6632502e-14
-1.9229625e-11
5.6631338e-14
1.8566364e-10
-1.0442619e-13
-1.3945017e-11
1.0442619e-13
1.3945017e-11
-1.2625002e-13
-9.954836e-12
1.2625002e-13
9.954836e-12
-1.1210413e-13
-7.010814e-12
1.1210529e-13
7.010814e-12
-7.0910044e-14
-4.8882281e-12
7.0910044e-14
4.8882293e-12
-4.1346204e-14
-3.3774525e-12
4.1347368e-14
3.3774525e-12
-2.7946268e-14
-2.3159947e-12
2.7946268e-14
2.3159947e-12
-2.340728e-14
-1.5788618e-12
2.340728e-14
1.5788641e-12
-1.8695699e-14
-1.0719109e-12
1.8695699e-14
1.0719109e-12
-1.4197654e-14
-7.2585535e-13
1.4197654e-14
7.2585535e-13
-1.0409551e-14
-4.9081742e-13
1.0411879e-14
4.9081742e-13
-7.3271244e-15
-3.3169823e-13
7.3271244e-15
3.3169823e-13
-4.8901143e-15
-2.2415262e-13
4.8901143e-15
2.2415262e-13
-3.0100277e-15
-1.515084e-13
3.0123558e-15
1.515084e-13
-1.579825e-15
-1.0246625e-13
1.5751688e-15
1.0246625e-13
-5.3921292e-16
-6.9300794e-14
5.3921292e-16
6.930545e-14
2.7776173e-16
-4.6940633e-14
-2.7776173e-16
4.6940633e-14
8.536194e-16
-3.1856203e-14
-8.4896327e-16
3.1856203e-14
9.2634441e-16
-2.1723006e-14
-9.2168827e-16
2.1723006e-14
7.2332986e-16
-1.4862118e-14
-7.1867373e-16
1.4862118e-14
4.9632121e-16
-1.0199331e-14
-4.9166508e-16
1.0203987e-14
2.5414572e-16
-7.032631e-15
-2.4948958e-16
7.032631e-15
7.1459421e-17
-4.8779679e-15
-6.2147149e-17
4.8826241e-15
-2.8563406e-17
-3.4063401e-15
2.8563406e-17
3.4063401e-15
-3.935137e-17
-2.3974404e-15
4.8663642e-17
2.3974404e-15
-3.5875518e-17
-1.7038416e-15
3.5875518e-17
1.7131539e-15
-9.3275057e-18
-1.2248061e-15
1.8639777e-17
1.2341183e-15
-4.6261999e-18
-8.9257081e-16
4.6261999e-18
8.9257081e-16
4.2735262e-18
-6.595324e-16
-4.2735262e-18
6.6884467e-16
1.0598185e-17
-4.9434697e-16
-1.0598185e-17
4.9434697e-16
1.4548497e-17
-3.7574692e-16
-1.4548497e-17
3.7574692e-16
1.7050998e-17
-2.8839453e-16
-1.7050998e-17
2.977068e-16
1.9132921e-17
-2.2275878e-16
-1.9132921e-17
2.3207105e-16
2.1367831e-17
-1.7289665e-16
-2.1367831e-17
1.8220892e-16
3.1936563e-17
-1.3438866e-16
-2.2624291e-17
1.3438866e-16
2.3642052e-17
-1.0475277e-16
-2.3642052e-17
1.0475277e-16
2.3284352e-17
-8.1042331e-17
-2.3284352e-17
8.1042331e-17
2.3544272e-17
-6.1861393e-17
-2.3544272e-17
6.1861393e-17
2.1864869e-17
-4.7037365e-17
-2.1864869e-17
4.7037365e-17
2.0151714e-17
-3.4582026e-17
-1.5271704e-18
5.3206569e-17
1.7491083e-17
-2.4967649e-17
1.1334604e-18
2.4967649e-17
1.5616966e-17
-1.6713692e-17
-1.5616966e-17
1.6713692e-17
1.4355716e-17
-9.3503179e-18
-1.4355716e-17
2.7974861e-17
1.3687758e-17
-4.705509e-18
-1.3687758e-17
2.3330053e-17
1.1745297e-17
-1.7300666e-18
6.8792469e-18
1.7300666e-18
2.9242293e-17
-4.3410318e-19
-1.061775e-17
4.3410318e-19
8.6913856e-18
-1.1741304e-18
-8.6913856e-18
1.1741304e-18
6.2979397e-18
-2.6435374e-18
-6.2979397e-18
2.1268081e-17
2.2988981e-17
-3.4368268e-18
-4.3644375e-18
3.4368268e-18
3.4096787e-18
-3.7928921e-18
-3.4096787e-18
3.7928921e-18
5.9081302e-18
-5.2282981e-18
-5.9081302e-18
5.2282981e-18
)
;

boundaryField
{
    movingWall
    {
        type            calculated;
        value           nonuniform List<scalar> 
16
(
5.7724729e-18
-5.9081301e-18
-5.7724732e-18
5.9081302e-18
-5.7999328e-18
5.2282981e-18
5.7999328e-18
-5.2282981e-18
-5.7724729e-18
5.9081301e-18
5.7724732e-18
-5.9081302e-18
5.7999328e-18
-5.2282981e-18
-5.7999328e-18
5.2282981e-18
)
;
    }
    CPLReceiveMD
    {
        type            calculated;
        value           nonuniform List<scalar> 
16
(
1.5808467e-13
-2.7009461e-12
-1.5808467e-13
2.7009461e-12
-2.9705876e-12
3.9151516e-10
2.9705876e-12
-3.9151516e-10
-1.5808467e-13
2.7009461e-12
1.5808467e-13
-2.7009461e-12
2.9705876e-12
-3.9151516e-10
-2.9705876e-12
3.9151516e-10
)
;
    }
    streamwiseIn
    {
        type            cyclic;
    }
    streamwiseOut
    {
        type            cyclic;
    }
    front
    {
        type            cyclic;
    }
    back
    {
        type            cyclic;
    }
}


// ************************************************************************* //
