/*--------------------------------*- C++ -*----------------------------------*\
| =========                 |                                                 |
| \\      /  F ield         | OpenFOAM: The Open Source CFD Toolbox           |
|  \\    /   O peration     | Version:  3.0.x                                 |
|   \\  /    A nd           | Web:      www.OpenFOAM.org                      |
|    \\/     M anipulation  |                                                 |
\*---------------------------------------------------------------------------*/
FoamFile
{
    version     2.0;
    format      ascii;
    class       surfaceScalarField;
    location    "75";
    object      phi;
}
// * * * * * * * * * * * * * * * * * * * * * * * * * * * * * * * * * * * * * //

dimensions      [0 3 -1 0 0 0 0];

internalField   nonuniform List<scalar> 
2384
(
-0.10832672
4.5858736e-08
9.5231599e-09
-0.1083268
7.24706e-08
2.4009218e-09
-0.10832674
-5.5225841e-08
1.3942866e-09
-7.1918999e-08
6.1148416e-09
-0.010327033
1.3675334e-07
1.1036614e-09
-0.01032718
2.0670001e-07
1.8930395e-09
-0.010327052
-1.8341899e-07
-3.6934977e-10
-1.9994515e-07
4.5929996e-09
0.0099449767
2.0159688e-07
-1.4752592e-09
0.0099448876
2.8729217e-07
1.7769817e-09
0.0099449591
-2.664717e-07
-1.2149819e-09
-2.9337357e-07
3.5448381e-09
0.011563332
2.2581954e-07
-3.3347561e-09
0.011563296
3.15669e-07
1.1769425e-09
0.011563326
-2.9419137e-07
-1.3022426e-09
-3.335169e-07
3.1099341e-09
0.012055549
1.7572675e-07
-3.872919e-09
0.012055597
2.6112731e-07
4.9890101e-10
0.012055549
-2.4507196e-07
-1.3487173e-09
-2.8928512e-07
2.6308278e-09
0.011883598
1.1999057e-07
-3.8342745e-09
0.011883663
1.9199205e-07
-4.4723207e-11
0.011883605
-1.8991679e-07
-1.2199681e-09
-2.2922513e-07
2.2668358e-09
0.011154205
7.5073421e-08
-3.4106111e-09
0.011154263
1.3205935e-07
-2.9930361e-10
0.011154215
-1.4552301e-07
-1.0594005e-09
-1.7689899e-07
1.9340131e-09
0.010498342
4.421772e-08
-2.8635324e-09
0.010498386
8.7562907e-08
-3.8492462e-10
0.010498351
-1.1521922e-07
-8.9247554e-10
-1.3855149e-07
1.616433e-09
0.010187994
3.1681419e-08
-2.3173817e-09
0.010188018
6.3479266e-08
-3.8536109e-10
0.010188002
-1.0311032e-07
-7.8673005e-10
-1.1929541e-07
1.3184981e-09
0.010091798
3.6649149e-08
-1.8334592e-09
0.010091802
5.9586118e-08
-3.4996536e-10
0.010091804
-1.0817511e-07
-7.4813927e-10
-1.1903561e-07
1.0507011e-09
0.0099590702
5.2530609e-08
-1.4264842e-09
0.0099590612
6.9596081e-08
-3.0488485e-10
0.0099590738
-1.2381463e-07
-6.3082353e-10
-1.3157473e-07
8.2262792e-10
0.0096179903
7.1454447e-08
-1.0994732e-09
0.0096179759
8.5264903e-08
-2.6266452e-10
0.0096179919
-1.4207137e-07
-5.1917503e-10
-1.4873113e-07
6.1631442e-10
0.009025238
8.8095562e-08
-8.4145296e-10
0.0090252241
1.0051593e-07
-2.2673314e-10
0.0090252382
-1.5757411e-07
-4.1838786e-10
-1.6449143e-07
4.4678521e-10
0.0082320847
1.0092122e-07
-6.4083989e-10
0.0082320737
1.1304545e-07
-1.9649478e-10
0.0082320842
-1.687503e-07
-3.3107907e-10
-1.7661062e-07
3.1162221e-10
0.0073308764
1.1144065e-07
-4.8775173e-10
0.0073308673
1.2382559e-07
-1.6997713e-10
0.0073308754
-1.7707079e-07
-2.5788184e-10
-1.8611429e-07
2.0776265e-10
0.0064141369
1.2276329e-07
-3.742769e-10
0.0064141269
1.3573317e-07
-1.4516756e-10
0.0064141358
-1.8561463e-07
-1.9795041e-10
-1.9592781e-07
1.3182347e-10
0.0055539741
1.3834907e-07
-2.9449822e-10
0.0055539597
1.5225118e-07
-1.204879e-10
0.0055539727
-1.9782682e-07
-1.4954076e-10
-2.095819e-07
8.0856024e-11
0.0047977811
1.6127658e-07
-2.4406491e-10
0.0047977589
1.7665156e-07
-9.4856257e-11
0.0047977792
-2.1679132e-07
-1.105947e-10
-2.3040046e-07
5.256116e-11
0.0041733239
1.9399709e-07
-2.1968124e-10
0.0041732912
2.116787e-07
-6.7557671e-11
0.0041733211
-2.449864e-07
-7.9078596e-11
-2.6118751e-07
4.5153149e-11
0.0036974976
2.384014e-07
-2.1878758e-10
0.0036974521
2.5957982e-07
-3.8116319e-11
0.0036974936
-2.8434971e-07
-5.3141172e-11
-3.0425895e-07
5.7185065e-11
0.003385332
2.9602056e-07
-2.3939982e-10
0.0033852717
3.2230223e-07
-6.2196337e-12
0.0033853263
-3.3647521e-07
-3.1141379e-11
-3.6163912e-07
8.7431359e-11
0.0032578394
3.6823152e-07
-2.8002181e-10
0.0032577625
4.0172004e-07
2.8318731e-11
0.0032578316
-4.0281669e-07
-9.3241221e-12
-4.3528562e-07
1.3484082e-10
0.0033486122
4.5639754e-07
-3.3963981e-10
0.0033485166
4.9981108e-07
6.5571528e-11
0.0033486017
-4.8480602e-07
1.5420346e-12
-5.2726328e-07
1.98543e-10
0.0037097388
5.6191766e-07
-4.1765451e-10
0.0037096221
6.1875004e-07
1.0552849e-10
0.0037097246
-5.8393605e-07
1.9253157e-11
-6.3983639e-07
2.7781212e-10
0.0044178272
6.8618582e-07
-5.1381696e-10
0.0044176871
7.6091388e-07
1.4952008e-10
0.0044178085
-7.0168768e-07
3.9481523e-11
-7.7547374e-07
3.7210062e-10
0.0055808896
8.304736e-07
-6.2846504e-10
0.0055807235
9.2882391e-07
1.9305184e-10
0.0055808651
-8.3941474e-07
6.2128483e-11
-9.3677942e-07
4.8139834e-10
0.0073467023
9.9574841e-07
-7.616042e-10
0.0073465077
1.1250043e-06
2.3710379e-10
0.0073466704
-9.9816435e-07
8.8236229e-11
-1.1263594e-06
6.0530144e-10
0.0099130886
1.1824453e-06
-9.1328644e-10
0.0099128629
1.3518004e-06
2.8180859e-10
0.0099130473
-1.178448e-06
1.1897562e-10
-1.3466384e-06
7.4343897e-10
0.01354041
1.3902036e-06
-1.0833264e-09
0.013540151
1.6111547e-06
3.2588209e-10
0.013540357
-1.3799779e-06
1.5542177e-10
-1.599633e-06
8.9532167e-10
0.018566399
1.6175828e-06
-1.2710831e-09
0.018566106
1.9043427e-06
3.6792401e-10
0.018566331
-1.6013821e-06
1.9846309e-10
-1.8866882e-06
1.0601741e-09
0.025423316
1.8617724e-06
-1.4752357e-09
0.025422989
2.2316773e-06
4.0640238e-10
0.025423231
-1.8399151e-06
2.4872691e-10
-2.2081821e-06
1.2367612e-09
0.034657235
2.1183191e-06
-1.6935571e-09
0.034656874
2.5921879e-06
4.3966621e-10
0.034657129
-2.091184e-06
3.0650029e-10
-2.5632047e-06
1.42321e-09
0.046949057
2.380897e-06
-1.9227021e-09
0.046948664
2.9832852e-06
4.6596856e-10
0.046948926
-2.3489198e-06
3.7164202e-10
-2.9492237e-06
1.6168379e-09
0.063136619
2.6411576e-06
-2.1580214e-09
0.063136199
3.4004265e-06
4.8356311e-10
0.063136459
-2.6048269e-06
4.4349286e-10
-3.3617494e-06
1.8139957e-09
0.084236977
2.8886993e-06
-2.3934115e-09
0.084236538
3.8368021e-06
4.9076684e-10
0.084236785
-2.8485518e-06
5.207825e-10
-3.7940214e-06
2.0099369e-09
0.11146762
3.1112016e-06
-2.6212383e-09
0.11146717
4.2830713e-06
4.8607803e-10
0.11146739
-3.0678171e-06
6.0155348e-10
-4.2367436e-06
2.1987274e-09
0.14626507
3.2947653e-06
-2.8323351e-09
0.14626462
4.7271789e-06
4.6832199e-10
0.14626481
-3.2487606e-06
6.8311217e-10
-4.6779002e-06
2.373211e-09
0.19029903
3.4244971e-06
-3.0161102e-09
0.19029859
5.1542949e-06
4.36821e-10
0.19029872
-3.3765177e-06
7.6202265e-10
-5.102694e-06
2.5250434e-09
0.24547988
3.4853561e-06
-3.1607848e-09
0.24547949
5.5469216e-06
3.9158498e-10
0.24547955
-3.4360664e-06
8.3416061e-10
-5.4936509e-06
2.644815e-09
0.31395747
3.4632613e-06
-3.2537789e-09
0.31395712
5.8852179e-06
3.3351265e-10
0.3139571
-3.4133319e-06
8.9484423e-10
-5.8309422e-06
2.7222717e-09
0.39810858
3.3464214e-06
-3.2822549e-09
0.39810831
6.1475937e-06
2.6458925e-10
0.39810819
-3.2965135e-06
9.3905591e-10
-6.0929766e-06
2.7466475e-09
0.50051128
3.1268117e-06
-3.2338222e-09
0.50051111
6.3116223e-06
1.8806063e-10
0.50051089
-3.077559e-06
9.6176348e-10
-6.2573089e-06
2.7071094e-09
0.62390418
2.801676e-06
-3.097387e-09
0.62390413
6.3553089e-06
1.085575e-10
0.6239038
-2.7536643e-06
9.5834048e-10
-6.3019067e-06
2.5933159e-09
0.7711294
2.3748895e-06
-2.8641196e-09
0.77112949
6.2587334e-06
3.2138214e-11
0.77112906
-2.3286355e-06
9.2507319e-10
-6.2067924e-06
2.3960804e-09
0.94505911
1.8579838e-06
-2.5284885e-09
0.94505936
6.006051e-06
-3.3785751e-11
0.94505884
-1.8139149e-06
8.5972633e-10
-5.9560436e-06
2.108122e-09
1.148506
1.27062e-06
-2.089294e-09
1.1485064
5.5877846e-06
-8.0677746e-11
1.1485059
-1.2290579e-06
7.6212289e-10
-5.5400889e-06
1.724873e-09
1.3841201
6.403049e-07
-1.5506098e-09
1.3841206
5.003277e-06
-9.9289908e-11
1.38412
-6.0145645e-07
6.3467552e-10
-4.9581666e-06
1.2453026e-09
1.654274
1.1948246e-09
-9.2253338e-10
1.6542747
4.2630947e-06
-8.0286708e-11
1.6542741
3.4844773e-08
4.8278771e-10
-4.2207383e-06
6.7270146e-10
1.9609428
-6.0808003e-07
-2.216743e-10
1.9609437
3.3910885e-06
-1.5087156e-11
1.9609431
6.4130927e-07
3.1505237e-10
-3.3515632e-06
1.5361237e-11
2.3055824
-1.1475118e-06
5.2902089e-10
2.3055833
2.4257361e-06
1.0308628e-10
2.3055828
1.1779853e-06
1.4309958e-10
-2.3890569e-06
-7.1292029e-10
2.6890136
-1.5795167e-06
1.3005575e-09
2.6890146
1.420324e-06
2.7797577e-10
2.6890142
1.6072871e-06
-1.8870959e-11
-1.3864905e-06
-1.4925887e-09
3.1113195
-1.8730637e-06
2.0592677e-09
3.1113205
4.4147962e-07
5.0894937e-10
3.1113202
1.898106e-06
-1.5508214e-10
-4.1053641e-07
-2.2983922e-09
3.5717623
-2.0076233e-06
2.7687518e-09
3.5717632
-4.3445804e-07
7.8963173e-10
3.5717631
2.0297484e-06
-2.495905e-10
4.6235522e-07
-3.0997525e-09
4.0687265
-1.9763753e-06
3.3926849e-09
4.0687272
-1.1277549e-06
1.1066766e-09
4.0687272
1.9951505e-06
-2.8804462e-10
1.1522845e-06
-3.8615786e-09
4.5996948
-1.7882136e-06
3.8984857e-09
4.5996953
-1.564867e-06
1.4386519e-09
4.5996955
1.8029182e-06
-2.5940758e-10
1.5855263e-06
-4.545035e-09
5.1612601
-1.4684061e-06
4.2617724e-09
5.1612603
-1.6920515e-06
1.7558193e-09
5.1612606
1.4780673e-06
-1.5699637e-10
1.7082198e-06
-5.1087652e-09
5.7491756
-1.0582981e-06
4.4711004e-09
5.7491754
-1.4938797e-06
2.0220655e-09
5.7491758
1.0618824e-06
2.2562428e-11
1.5050107e-06
-5.5108743e-09
6.3584437
-6.1509046e-07
4.530101e-09
6.3584432
-1.0172987e-06
2.1996673e-09
6.3584436
6.1198802e-07
2.87752e-10
1.0233209e-06
-5.710544e-09
6.98344
-2.1638152e-07
4.4476662e-09
6.9834394
-4.0892417e-07
2.2469501e-09
6.9834398
2.0743292e-07
6.7489095e-10
4.1094814e-07
-5.6492837e-09
7.6180689
3.7684164e-09
7.6180684
1.8834742e-09
7.6180687
1.1618511e-09
-4.673513e-09
-0.10832675
6.6673988e-08
4.4406936e-09
-0.10832681
7.2467999e-08
1.7165029e-09
-0.10832675
-6.3807665e-08
-4.4122154e-10
-7.6949979e-08
-1.8902518e-09
-0.010327082
1.6960642e-07
4.7715047e-10
-0.010327215
1.9637684e-07
3.3011664e-10
-0.010327098
-1.7680806e-07
-1.2863395e-10
-1.9789069e-07
-2.6866363e-09
0.0099449353
2.4035872e-07
1.0506446e-09
0.0099448506
2.7413887e-07
-1.1467008e-10
0.0099449199
-2.5416859e-07
5.1222631e-10
-2.8651493e-07
-2.3295498e-09
0.011563301
2.6045009e-07
1.315182e-09
0.011563267
3.0490216e-07
7.9505562e-11
0.011563293
-2.8053153e-07
5.5305906e-10
-3.2363377e-07
-2.446964e-09
0.012055526
2.0514294e-07
1.4096601e-09
0.012055573
2.5403256e-07
1.6360101e-10
0.012055524
-2.3264933e-07
6.6461497e-10
-2.7911766e-07
-2.4049179e-09
0.011883593
1.4512505e-07
1.456818e-09
0.011883654
1.891573e-07
2.8066481e-10
0.011883598
-1.8015635e-07
7.4689185e-10
-2.2120396e-07
-2.2850659e-09
0.011154207
9.5730954e-08
1.4458202e-09
0.011154261
1.3205173e-07
3.4191099e-10
0.011154214
-1.3750737e-07
6.4256043e-10
-1.7085391e-07
-2.0496052e-09
0.010498346
6.0759502e-08
1.3782094e-09
0.010498386
8.9033831e-08
3.467894e-10
0.010498354
-1.0825794e-07
5.8653606e-10
-1.3390609e-07
-1.7549666e-09
0.010188
4.4907637e-08
1.2515962e-09
0.01018802
6.5702942e-08
3.1301162e-10
0.010188007
-9.7057916e-08
5.3880654e-10
-1.1574333e-07
-1.455627e-09
0.010091804
4.7317529e-08
1.0671728e-09
0.010091805
6.2162254e-08
2.596948e-10
0.010091809
-1.0306043e-07
4.7560673e-10
-1.1635621e-07
-1.1829667e-09
0.0099590745
6.1221557e-08
8.7636375e-10
0.0099590623
7.2242026e-08
2.0391927e-10
0.0099590775
-1.1945077e-07
4.0164413e-10
-1.2951301e-07
-9.4758642e-10
0.0096179925
7.8588376e-08
6.9333593e-10
0.0096179752
8.7795745e-08
1.5604171e-10
0.0096179936
-1.3826259e-07
3.2466972e-10
-1.4708246e-07
-7.4060224e-10
0.0090252384
9.4012529e-08
5.3386001e-10
0.0090252221
1.0284349e-07
1.1972745e-10
0.0090252382
-1.5416862e-07
2.5282571e-10
-1.6310671e-07
-5.6595993e-10
0.0082320841
1.0590852e-07
4.0356866e-10
0.0082320711
1.1516802e-07
9.3966435e-11
0.0082320833
-1.6565535e-07
1.906559e-10
-1.7540538e-07
-4.2222517e-10
0.0073308755
1.1573422e-07
3.0269566e-10
0.0073308647
1.2579776e-07
7.5640567e-11
0.0073308744
-1.7423942e-07
1.3980529e-10
-1.8505251e-07
-3.0709139e-10
0.0064141362
1.2654496e-07
2.2935534e-10
0.0064141246
1.3763276e-07
6.1311047e-11
0.0064141349
-1.8302546e-07
9.9777807e-11
-1.9499994e-07
-2.1839519e-10
0.0055539737
1.417489e-07
1.8111007e-10
0.0055539579
1.5415595e-07
4.8072271e-11
0.0055539721
-1.9546861e-07
6.8911529e-11
-2.0878862e-07
-1.5438298e-10
0.0047977809
1.6438061e-07
1.5566117e-10
0.0047977575
1.7862794e-07
3.381216e-11
0.0047977788
-2.1465457e-07
4.5153431e-11
-2.2974422e-07
-1.1367592e-10
0.0041733238
1.968581e-07
1.5105788e-10
0.00417329
2.1377995e-07
1.7122879e-11
0.0041733208
-2.4306023e-07
2.6541652e-11
-2.6067037e-07
-9.5072306e-11
0.0036974974
2.4104987e-07
1.6573128e-10
0.0036974508
2.6184934e-07
-2.8554802e-12
0.0036974931
-2.8262176e-07
1.139706e-11
-3.0388363e-07
-9.7407462e-11
0.0033853314
2.984737e-07
1.9849008e-10
0.0033852702
3.2477865e-07
-2.6584603e-11
0.0033853255
-3.3493251e-07
-1.6283523e-12
-3.6141109e-07
-1.1951411e-10
0.0032578384
3.7049989e-07
2.4853349e-10
0.0032577606
4.0444183e-07
-5.4229604e-11
0.0032578303
-4.0144207e-07
-1.3430274e-11
-4.3521501e-07
-1.602518e-10
0.0033486105
4.5848923e-07
3.1542774e-10
0.003348514
5.0281935e-07
-8.5706467e-11
0.0033485996
-4.8360933e-07
-2.1399927e-11
-5.2736643e-07
-2.185608e-10
0.0037097362
5.6384044e-07
3.9907294e-10
0.0037096187
6.2209137e-07
-1.2067419e-10
0.0037097216
-5.8290623e-07
-3.7370491e-11
-6.4013531e-07
-2.9350416e-10
0.0044178234
6.8794819e-07
4.9958462e-10
0.0044176825
7.6464715e-07
-1.6098031e-10
0.0044178042
-7.0081348e-07
-5.38835e-11
-7.7599646e-07
-3.8434107e-10
0.0055808845
8.320828e-07
6.175884e-10
0.0055807175
9.330044e-07
-2.0235909e-10
0.0055808593
-8.386861e-07
-7.3273e-11
-9.375583e-07
-4.9088576e-10
0.0073466955
9.9721037e-07
7.5330234e-10
0.0073464999
1.1296865e-06
-2.445243e-10
0.0073466628
-9.9757125e-07
-9.6767751e-11
-1.1274311e-06
-6.1261544e-10
0.0099130795
1.183764e-06
9.0695276e-10
0.0099128528
1.3570385e-06
-2.8757617e-10
0.0099130373
-1.1779786e-06
-1.2547622e-10
-1.3480433e-06
-7.4905534e-10
0.013540398
1.3913806e-06
1.0784944e-09
0.013540138
1.6169983e-06
-3.3031767e-10
0.013540344
-1.3796169e-06
-1.6036441e-10
-1.6014141e-06
-8.9962164e-10
0.018566384
1.6186161e-06
1.2673965e-09
0.018566089
1.910832e-06
-3.7131766e-10
0.018566315
-1.6011089e-06
-2.0221752e-10
-1.8888899e-06
-1.0634592e-09
0.025423297
1.8626566e-06
1.4724229e-09
0.025422969
2.2388382e-06
-4.0899052e-10
0.025423211
-1.8397024e-06
-2.5157739e-10
-2.2108482e-06
-1.2392672e-09
0.034657212
2.119045e-06
1.6914111e-09
0.034656849
2.600027e-06
-4.4163552e-10
0.034657104
-2.0909964e-06
-3.086637e-10
-2.5663763e-06
-1.4251191e-09
0.046949028
2.3814523e-06
1.9210653e-09
0.046948634
2.9917844e-06
-4.6746396e-10
0.046948895
-2.348713e-06
-3.7328333e-10
-2.9529358e-06
-1.6182906e-09
0.063136584
2.6415281e-06
2.1567736e-09
0.063136164
3.4095383e-06
-4.846966e-10
0.063136423
-2.6045472e-06
-4.4473743e-10
-3.3660275e-06
-1.8150997e-09
0.084236936
2.8888709e-06
2.3924609e-09
0.084236495
3.8464453e-06
-4.916245e-10
0.084236741
-2.8481372e-06
-5.217256e-10
-3.7988769e-06
-2.0107748e-09
0.11146757
3.1111631e-06
2.6205148e-09
0.11146712
4.293127e-06
-4.867259e-10
0.11146734
-3.0671988e-06
-6.0226754e-10
-4.2421686e-06
-2.1993625e-09
0.14626502
3.2945125e-06
2.8317849e-09
0.14626457
4.7374881e-06
-4.6881058e-10
0.14626475
-3.2478666e-06
-6.8365229e-10
-4.683862e-06
-2.3736918e-09
0.19029896
3.4240379e-06
3.0156923e-09
0.19029853
5.1646573e-06
-4.3718891e-10
0.19029866
-3.3752782e-06
-7.6243074e-10
-5.1091288e-06
-2.5254069e-09
0.24547981
3.4847165e-06
3.1604679e-09
0.24547941
5.5570961e-06
-3.9186159e-10
0.24547947
-3.4344204e-06
-8.3446859e-10
-5.5004581e-06
-2.6450894e-09
0.31395739
3.4624919e-06
3.2535387e-09
0.31395705
5.894926e-06
-3.3372032e-10
0.31395702
-3.4112356e-06
-8.9507635e-10
-5.8379792e-06
-2.7224785e-09
0.39810849
3.3456036e-06
3.2820732e-09
0.39810822
6.1565249e-06
-2.6474496e-10
0.3981081
-3.2939498e-06
-9.3923063e-10
-6.1000543e-06
-2.7468032e-09
0.50051119
3.1260635e-06
3.2336849e-09
0.50051102
6.3194431e-06
-1.8817722e-10
0.5005108
-3.0745467e-06
-9.618948e-10
-6.2641907e-06
-2.7072265e-09
0.62390408
2.8011546e-06
3.0972833e-09
0.62390403
6.361675e-06
-1.0864473e-10
0.6239037
-2.7502668e-06
-9.5843905e-10
-6.3083103e-06
-2.5934038e-09
0.7711293
2.3747905e-06
2.8640414e-09
0.7711294
6.2633062e-06
-3.2203399e-11
0.77112897
-2.3249657e-06
-9.2514706e-10
-6.2123963e-06
-2.3961463e-09
0.94505901
1.8585347e-06
2.5284297e-09
0.94505927
6.0085177e-06
3.3737099e-11
0.94505874
-1.8101367e-06
-8.5978158e-10
-5.9605006e-06
-2.1081714e-09
1.1485059
1.2720665e-06
2.0892497e-09
1.1485064
5.5878828e-06
8.0641446e-11
1.1485058
-1.2253809e-06
-7.6216419e-10
-5.5430459e-06
-1.72491e-09
1.38412
6.4288901e-07
1.5505765e-09
1.3841206
5.0008224e-06
9.9262819e-11
1.3841199
-5.9812294e-07
-6.3470637e-10
-4.9592933e-06
-1.2453303e-09
1.6542739
5.1244904e-09
9.2250845e-10
1.6542747
4.2580118e-06
8.0266539e-11
1.654274
3.758148e-08
-4.8281073e-10
-4.2197633e-06
-6.7272222e-10
1.9609427
-6.0266899e-07
2.2165561e-10
1.9609436
3.3834416e-06
1.5072095e-11
1.960943
6.4321455e-07
-3.1506987e-10
-3.3483166e-06
-1.5376752e-11
2.3055823
-1.1405976e-06
-5.2903441e-10
2.3055833
2.4157586e-06
-1.0309749e-10
2.3055828
1.1788798e-06
-1.431127e-10
-2.3835172e-06
7.1290861e-10
2.6890136
-1.571233e-06
-1.3005676e-09
2.6890146
1.4084414e-06
-2.7798418e-10
2.6890142
1.6070861e-06
1.8861149e-11
-1.3788298e-06
1.4925808e-09
3.1113196
-1.8637327e-06
-2.0592753e-09
3.1113205
4.2832204e-07
-5.0895571e-10
3.1113202
1.8968565e-06
1.5507496e-10
-4.0115784e-07
2.2983862e-09
3.5717624
-1.997769e-06
-2.7687576e-09
3.5717632
-4.4806271e-07
-7.896366e-10
3.5717631
2.0276569e-06
2.4958536e-10
4.7280043e-07
3.0997481e-09
4.0687266
-1.9667052e-06
-3.3926893e-09
4.0687273
-1.1408174e-06
-1.1066804e-09
4.0687273
1.9925948e-06
2.8804094e-10
1.1629153e-06
3.8615756e-09
4.5996949
-1.7795564e-06
-3.898489e-09
4.5996954
-1.5763258e-06
-1.438655e-09
4.5996956
1.800444e-06
2.5940497e-10
1.5953151e-06
4.5450331e-09
5.1612602
-1.4615985e-06
-4.2617749e-09
5.1612604
-1.7009513e-06
-1.7558219e-09
5.1612607
1.4763844e-06
1.5699466e-10
1.7161886e-06
5.1087639e-09
5.7491757
-1.0540374e-06
-4.4711025e-09
5.7491755
-1.4997206e-06
-2.0220679e-09
5.7491759
1.0619108e-06
-2.2563387e-11
1.5106377e-06
5.5108736e-09
6.3584438
-6.1381125e-07
-4.5301027e-09
6.3584433
-1.0207375e-06
-2.1996694e-09
6.3584437
6.1509841e-07
-2.8775252e-10
1.0273821e-06
5.7105436e-09
6.9834401
-2.1829231e-07
-4.4476676e-09
6.9834394
-4.1211748e-07
-2.2469517e-09
6.9834398
2.1574862e-07
-6.748913e-10
4.1617909e-07
5.6492832e-09
7.6180689
-3.7684177e-09
7.6180685
-1.8834755e-09
7.6180687
-1.1618514e-09
4.6735125e-09
-0.10832673
6.4913118e-08
-4.9224605e-09
-0.1083268
7.0761145e-08
-1.5333717e-09
-0.10832674
-5.8237446e-08
2.7044788e-10
-7.4933737e-08
2.1813957e-09
-0.010327041
1.7095876e-07
-5.114031e-10
-0.010327178
2.0041224e-07
-9.9606159e-11
-0.010327053
-1.8317697e-07
-1.6413617e-10
-2.0688126e-07
3.0950257e-09
0.0099449731
2.4247273e-07
-9.5981339e-10
0.0099448885
2.803813e-07
3.6207523e-10
0.0099449584
-2.6502833e-07
-8.1856862e-10
-3.0081848e-07
2.7210895e-09
0.011563332
2.6241725e-07
-1.3906876e-09
0.011563297
3.1106006e-07
1.4109253e-10
0.011563325
-2.9247295e-07
-8.4623689e-10
-3.3887525e-07
2.7769714e-09
0.01205555
2.053878e-07
-1.4961573e-09
0.012055597
2.5874378e-07
1.8667739e-11
0.012055548
-2.4295275e-07
-1.0205779e-09
-2.9256649e-07
2.670174e-09
0.011883599
1.4261364e-07
-1.5274363e-09
0.011883663
1.9111974e-07
-1.3088799e-10
0.011883605
-1.8725749e-07
-9.7699416e-10
-2.3088662e-07
2.493527e-09
0.011154206
9.1777531e-08
-1.4918506e-09
0.011154264
1.3216414e-07
-2.2056495e-10
0.011154214
-1.4263732e-07
-8.4176186e-10
-1.7741666e-07
2.2116506e-09
0.010498343
5.6410742e-08
-1.3947853e-09
0.010498386
8.8273263e-08
-2.4803415e-10
0.01049835
-1.1231864e-07
-6.9516659e-10
-1.38301e-07
1.8803594e-09
0.010187994
4.0620309e-08
-1.2444921e-09
0.010188018
6.4538397e-08
-2.3278051e-10
0.010188001
-1.0035462e-07
-5.8169799e-10
-1.1856538e-07
1.5526192e-09
0.010091798
4.3272328e-08
-1.0665081e-09
0.010091803
6.0810535e-08
-1.9485152e-10
0.010091803
-1.0570963e-07
-4.8799652e-10
-1.1804289e-07
1.2580687e-09
0.0099590704
5.7502668e-08
-8.5965381e-10
0.0099590613
7.0850343e-08
-1.5163247e-10
0.0099590737
-1.2166688e-07
-3.9457219e-10
-1.3047673e-07
1.0065377e-09
0.0096179905
7.5217467e-08
-6.7000225e-10
0.0096179759
8.6463893e-08
-1.1373691e-10
0.0096179919
-1.4024429e-07
-3.0490204e-10
-1.4763989e-07
7.8772872e-10
0.0090252381
9.0955607e-08
-5.093437e-10
0.0090252242
1.016076e-07
-8.5349644e-11
0.0090252382
-1.5604729e-07
-2.3091446e-10
-1.6347591e-07
6.0410983e-10
0.0082320848
1.0309748e-07
-3.8076162e-10
0.0082320738
1.1400352e-07
-6.5920841e-11
0.0082320842
-1.6749416e-07
-1.6933208e-10
-1.7570766e-07
4.5349094e-10
0.0073308764
1.130948e-07
-2.8286308e-10
0.0073308673
1.2464279e-07
-5.2689178e-11
0.0073308754
-1.7605149e-07
-1.2053324e-10
-1.8533785e-07
3.3295859e-10
0.0064141369
1.2401755e-07
-2.1281496e-10
0.0064141269
1.3641473e-07
-4.247045e-11
0.0064141358
-1.8479744e-07
-8.3162303e-11
-1.952768e-07
2.399363e-10
0.0055539742
1.3929738e-07
-1.6769413e-10
0.0055539597
1.5280957e-07
-3.2571859e-11
0.0055539727
-1.9717851e-07
-5.5063299e-11
-2.0904652e-07
1.7239496e-10
0.0047977812
1.6199163e-07
-1.4497498e-10
0.0047977589
1.7710259e-07
-2.1034764e-11
0.0047977792
-2.1628162e-07
-3.3911481e-11
-2.2996667e-07
1.2876462e-10
0.0041733239
1.9453508e-07
-1.42637e-10
0.0041732912
2.1203893e-07
-6.57939e-12
0.0041733211
-2.4458877e-07
-1.7620802e-11
-2.6084003e-07
1.0770947e-10
0.0036974976
2.3880558e-07
-1.5912064e-10
0.0036974521
2.5986499e-07
1.1554665e-11
0.0036974936
-2.8404146e-07
-4.4875646e-12
-3.0398303e-07
1.0797033e-10
0.003385332
2.9632393e-07
-1.9328121e-10
0.0033852717
3.2252647e-07
3.3756094e-11
0.0033853263
-3.362372e-07
6.792872e-12
-3.6142146e-07
1.2831287e-10
0.0032578394
3.6845912e-07
-2.4440104e-10
0.0032577625
4.0189559e-07
6.0131682e-11
0.0032578317
-4.0262986e-07
1.6974619e-11
-4.3511473e-07
1.6754758e-10
0.0033486122
4.5656827e-07
-3.1213561e-10
0.0033485166
4.9994823e-07
9.0547169e-11
0.0033486017
-4.8465811e-07
2.2532562e-11
-5.2712974e-07
2.2457405e-10
0.0037097388
5.6204576e-07
-3.9647095e-10
0.0037096221
6.1885762e-07
1.246275e-10
0.0037097246
-5.8382275e-07
3.826632e-11
-6.3973262e-07
2.984303e-10
0.0044178272
6.8628197e-07
-4.9756112e-10
0.0044176871
7.6099821e-07
1.6443357e-10
0.0044178085
-7.0160148e-07
5.4645565e-11
-7.7539352e-07
3.8835236e-10
0.0055808896
8.305458e-07
-6.1604817e-10
0.0055807235
9.2888903e-07
2.0535556e-10
0.0055808651
-8.3934936e-07
7.3908322e-11
-9.3671767e-07
4.9413278e-10
0.0073467023
9.9580265e-07
-7.521477e-10
0.0073465077
1.1250541e-06
2.4694551e-10
0.0073466704
-9.9811484e-07
9.7289918e-11
-1.1263121e-06
6.1522868e-10
0.0099130886
1.182486e-06
-9.0609693e-10
0.0099128629
1.3518384e-06
2.894893e-10
0.0099130473
-1.1784105e-06
1.2590037e-10
-1.3466022e-06
7.5114653e-10
0.01354041
1.3902342e-06
-1.0778654e-09
0.013540151
1.6111835e-06
3.3181708e-10
0.013540357
-1.3799496e-06
1.6070536e-10
-1.5996053e-06
9.0128581e-10
0.018566399
1.6176058e-06
-1.2669375e-09
0.018566106
1.9043645e-06
3.7248917e-10
0.018566331
-1.6013607e-06
2.0248896e-10
-1.8866672e-06
1.0647765e-09
0.025423316
1.8617898e-06
-1.4720903e-09
0.025422989
2.2316938e-06
4.0990438e-10
0.025423231
-1.8398989e-06
2.5179156e-10
-2.2081661e-06
1.2403045e-09
0.034657235
2.1183322e-06
-1.6911717e-09
0.034656874
2.5922004e-06
4.4234743e-10
0.034657129
-2.0911717e-06
3.0883128e-10
-2.5631926e-06
1.4259319e-09
0.046949057
2.3809069e-06
-1.9208942e-09
0.046948664
2.9832947e-06
4.6801774e-10
0.046948926
-2.3489106e-06
3.7341344e-10
-2.9492146e-06
1.6189244e-09
0.063136619
2.641165e-06
-2.1566524e-09
0.063136199
3.4004336e-06
4.8512658e-10
0.063136459
-2.6048199e-06
4.4483775e-10
-3.3617425e-06
1.8155917e-09
0.084236977
2.8887049e-06
-2.3923757e-09
0.084236538
3.8368075e-06
4.9195764e-10
0.084236785
-2.8485465e-06
5.2180247e-10
-3.7940162e-06
2.0111551e-09
0.11146762
3.1112058e-06
-2.6204555e-09
0.11146717
4.2830753e-06
4.8698339e-10
0.11146739
-3.0678131e-06
6.0232612e-10
-4.2367397e-06
2.1996552e-09
0.14626507
3.2947685e-06
-2.8317442e-09
0.14626462
4.7271819e-06
4.6900908e-10
0.14626481
-3.2487576e-06
6.8369671e-10
-4.6778973e-06
2.3739161e-09
0.19029903
3.4244995e-06
-3.0156647e-09
0.19029859
5.1542972e-06
4.373415e-10
0.19029872
-3.3765154e-06
7.6246429e-10
-5.1026918e-06
2.5255782e-09
0.24547988
3.4853579e-06
-3.1604494e-09
0.24547949
5.5469233e-06
3.9197856e-10
0.24547955
-3.4360647e-06
8.3449383e-10
-5.4936492e-06
2.6452198e-09
0.31395747
3.4632627e-06
-3.2535266e-09
0.31395712
5.8852191e-06
3.3380972e-10
0.3139571
-3.4133306e-06
8.950953e-10
-5.830941e-06
2.7225774e-09
0.39810858
3.3464224e-06
-3.2820654e-09
0.39810831
6.1475947e-06
2.6481307e-10
0.39810819
-3.2965125e-06
9.3924482e-10
-6.0929757e-06
2.7468779e-09
0.50051128
3.1268125e-06
-3.23368e-09
0.50051111
6.311623e-06
1.8822896e-10
0.50051089
-3.0775583e-06
9.619054e-10
-6.2573082e-06
2.7072829e-09
0.62390418
2.8016766e-06
-3.0972805e-09
0.62390413
6.3553094e-06
1.0868391e-10
0.6239038
-2.7536638e-06
9.5844699e-10
-6.3019062e-06
2.5934462e-09
0.7711294
2.3748899e-06
-2.8640399e-09
0.77112949
6.2587338e-06
3.2232982e-11
0.77112906
-2.3286351e-06
9.2515307e-10
-6.206792e-06
2.3961781e-09
0.94505911
1.8579841e-06
-2.528429e-09
0.94505936
6.0060513e-06
-3.3714842e-11
0.94505884
-1.8139146e-06
8.5978615e-10
-5.9560433e-06
2.1081952e-09
1.148506
1.2706203e-06
-2.0892497e-09
1.1485064
5.5877848e-06
-8.0624762e-11
1.1485059
-1.2290576e-06
7.6216771e-10
-5.5400887e-06
1.7249278e-09
1.3841201
6.4030508e-07
-1.5505768e-09
1.3841206
5.0032772e-06
-9.9250351e-11
1.38412
-6.0145628e-07
6.3470908e-10
-4.9581665e-06
1.2453436e-09
1.654274
1.194957e-09
-9.2250882e-10
1.6542747
4.2630949e-06
-8.0257252e-11
1.6542741
3.4844899e-08
4.8281279e-10
-4.2207382e-06
6.7273209e-10
1.9609428
-6.0807993e-07
-2.2165593e-10
1.9609437
3.3910886e-06
-1.5065243e-11
1.9609431
6.4130937e-07
3.1507105e-10
-3.3515631e-06
1.5384138e-11
2.3055824
-1.1475118e-06
5.2903466e-10
2.3055833
2.4257362e-06
1.0310251e-10
2.3055828
1.1779853e-06
1.4311347e-10
-2.3890568e-06
-7.1290308e-10
2.6890136
-1.5795166e-06
1.3005677e-09
2.6890146
1.420324e-06
2.7798782e-10
2.6890142
1.6072871e-06
-1.8860537e-11
-1.3864904e-06
-1.4925758e-09
3.1113195
-1.8730636e-06
2.0592753e-09
3.1113205
4.4147965e-07
5.0895843e-10
3.1113202
1.898106e-06
-1.5507443e-10
-4.1053638e-07
-2.2983825e-09
3.5717623
-2.0076233e-06
2.7687574e-09
3.5717632
-4.3445802e-07
7.8963868e-10
3.5717631
2.0297484e-06
-2.4958498e-10
4.6235525e-07
-3.0997455e-09
4.0687265
-1.9763752e-06
3.3926893e-09
4.0687272
-1.1277548e-06
1.106682e-09
4.0687272
1.9951505e-06
-2.8804082e-10
1.1522846e-06
-3.8615738e-09
4.5996948
-1.7882136e-06
3.898489e-09
4.5996953
-1.564867e-06
1.4386563e-09
4.5996955
1.8029182e-06
-2.59405e-10
1.5855263e-06
-4.5450319e-09
5.1612601
-1.4684061e-06
4.2617749e-09
5.1612603
-1.6920515e-06
1.7558228e-09
5.1612606
1.4780674e-06
-1.5699457e-10
1.7082198e-06
-5.1087629e-09
5.7491756
-1.0582981e-06
4.4711025e-09
5.7491754
-1.4938797e-06
2.0220685e-09
5.7491758
1.0618824e-06
2.2563296e-11
1.5050107e-06
-5.5108727e-09
6.3584437
-6.1509046e-07
4.5301029e-09
6.3584432
-1.0172987e-06
2.1996697e-09
6.3584436
6.1198803e-07
2.8775204e-10
1.0233209e-06
-5.7105426e-09
6.98344
-2.1638153e-07
4.4476681e-09
6.9834394
-4.0892417e-07
2.2469519e-09
6.9834398
2.0743293e-07
6.7489069e-10
4.1094815e-07
-5.6492823e-09
7.6180689
3.7684181e-09
7.6180684
1.8834755e-09
7.6180687
1.1618512e-09
-4.6735118e-09
-0.10832675
6.8296207e-08
-0.10832681
7.2429364e-08
-0.10832675
-6.3929586e-08
-7.7426918e-08
-0.010327083
1.7065695e-07
-0.010327215
1.9590847e-07
-0.010327099
-1.7673648e-07
-1.988197e-07
0.009944935
2.4127491e-07
0.0099448509
2.7339327e-07
0.0099449195
-2.5403929e-07
-2.8766049e-07
0.011563301
2.6116045e-07
0.011563267
3.0388216e-07
0.011563293
-2.8041622e-07
-3.2489361e-07
0.012055526
2.0552496e-07
0.012055574
2.5301265e-07
0.012055524
-2.3266696e-07
-2.8040232e-07
0.011883593
1.4523132e-07
0.011883654
1.8815136e-07
0.011883598
-1.8019817e-07
-2.2243605e-07
0.011154207
9.5633458e-08
0.011154261
1.3108449e-07
0.011154214
-1.3769812e-07
-1.7198824e-07
0.010498346
6.0538308e-08
0.010498386
8.8136992e-08
0.010498353
-1.0859582e-07
-1.3491525e-07
0.010188
4.4632503e-08
0.010188021
6.4897715e-08
0.010188006
-9.7477425e-08
-1.1661707e-07
0.010091804
4.7015103e-08
0.010091805
6.1460046e-08
0.010091809
-1.0345832e-07
-1.1709458e-07
0.0099590745
6.0925606e-08
0.0099590623
7.1646746e-08
0.0099590775
-1.1981219e-07
-1.3012353e-07
0.0096179924
7.8319168e-08
0.0096179752
8.7302346e-08
0.0096179935
-1.3857672e-07
-1.475773e-07
0.0090252383
9.377914e-08
0.0090252221
1.0244206e-07
0.0090252382
-1.5443463e-07
-1.6350208e-07
0.0082320841
1.057127e-07
0.0082320711
1.1484653e-07
0.0082320833
-1.6587567e-07
-1.7571749e-07
0.0073308755
1.1557374e-07
0.0073308647
1.2554367e-07
0.0073308743
-1.744186e-07
-1.8529656e-07
0.0064141362
1.2641574e-07
0.0064141246
1.3743413e-07
0.0064141349
-1.8316904e-07
-1.9518944e-07
0.0055539737
1.416462e-07
0.0055539579
1.5400203e-07
0.0055539721
-1.9558227e-07
-2.0893507e-07
0.0047977809
1.6429981e-07
0.0047977575
1.7850945e-07
0.0047977788
-2.1474363e-07
-2.2985712e-07
0.0041733238
1.9679502e-07
0.00417329
2.1368915e-07
0.0041733208
-2.4312941e-07
-2.6075734e-07
0.0036974974
2.4100092e-07
0.0036974508
2.6177994e-07
0.0036974931
-2.826751e-07
-3.039507e-07
0.0033853314
2.9843591e-07
0.0033852702
3.2472563e-07
0.0033853255
-3.349734e-07
-3.6146294e-07
0.0032578384
3.7047086e-07
0.0032577606
4.0440123e-07
0.0032578303
-4.0147565e-07
-4.3525527e-07
0.0033486105
4.5846705e-07
0.003348514
5.027882e-07
0.0033485996
-4.8363541e-07
-5.2739775e-07
0.0037097362
5.638236e-07
0.0037096187
6.2206734e-07
0.0037097216
-5.8292611e-07
-6.4015972e-07
0.0044178234
6.8793546e-07
0.0044176825
7.6462851e-07