/*--------------------------------*- C++ -*----------------------------------*\
| =========                 |                                                 |
| \\      /  F ield         | OpenFOAM: The Open Source CFD Toolbox           |
|  \\    /   O peration     | Version:  3.0.x                                 |
|   \\  /    A nd           | Web:      www.OpenFOAM.org                      |
|    \\/     M anipulation  |                                                 |
\*---------------------------------------------------------------------------*/
FoamFile
{
    version     2.0;
    format      ascii;
    class       volScalarField;
    location    "75";
    object      sigmaxy;
}
// * * * * * * * * * * * * * * * * * * * * * * * * * * * * * * * * * * * * * //

dimensions      [0 2 -2 0 0 0 0];

internalField   nonuniform List<scalar> 
960
(
-0.0038149227
-0.0038149448
-0.0038149438
-0.003814926
0.0049211108
0.0049211066
0.0049211071
0.0049211098
0.00091082258
0.00091082904
0.00091082853
0.0009108229
8.7813895e-05
8.7822303e-05
8.7821941e-05
8.7814716e-05
1.3322883e-05
1.3329104e-05
1.3328452e-05
1.3323882e-05
-3.7503057e-05
-3.7503716e-05
-3.7504365e-05
-3.7502299e-05
-5.7636936e-05
-5.763967e-05
-5.7640161e-05
-5.7636846e-05
-4.0200856e-05
-4.0204205e-05
-4.0204604e-05
-4.0200958e-05
-1.6913829e-05
-1.6917447e-05
-1.6917767e-05
-1.6914011e-05
-9.5235684e-06
-9.5267124e-06
-9.5269493e-06
-9.5238384e-06
-1.9713328e-05
-1.971547e-05
-1.971563e-05
-1.971364e-05
-3.8854739e-05
-3.8855955e-05
-3.8856065e-05
-3.8855008e-05
-5.7665064e-05
-5.7665825e-05
-5.7665909e-05
-5.7665247e-05
-7.0499422e-05
-7.0500252e-05
-7.0500323e-05
-7.0499539e-05
-7.5641442e-05
-7.5642712e-05
-7.5642786e-05
-7.564151e-05
-7.3933275e-05
-7.393517e-05
-7.3935262e-05
-7.3933327e-05
-6.7252831e-05
-6.725541e-05
-6.7255521e-05
-6.7252909e-05
-5.7445142e-05
-5.7448394e-05
-5.7448525e-05
-5.7445253e-05
-4.5779159e-05
-4.5783077e-05
-4.5783244e-05
-4.5779313e-05
-3.2784808e-05
-3.2789443e-05
-3.2789646e-05
-3.2785018e-05
-1.8290741e-05
-1.8296197e-05
-1.8296442e-05
-1.8291026e-05
-1.5245794e-06
-1.5309903e-06
-1.5313075e-06
-1.5249561e-06
1.8806716e-05
1.8799172e-05
1.8798764e-05
1.8806229e-05
4.449299e-05
4.4484114e-05
4.4483579e-05
4.4492369e-05
7.786116e-05
7.7850723e-05
7.7850034e-05
7.7860353e-05
0.00012187243
0.00012186022
0.00012185933
0.00012187138
0.00018026369
0.00018024951
0.00018024834
0.00018026235
0.00025771942
0.00025770309
0.00025770159
0.00025771771
0.00036006108
0.00036004242
0.00036004049
0.00036005888
0.00049444114
0.00049442006
0.00049441764
0.00049443843
0.00066952825
0.00066950474
0.00066950164
0.0006695249
0.00089566789
0.00089564191
0.000895638
0.00089566371
0.001185
0.0011849717
0.0011849669
0.001184995
0.0015515114
0.0015514811
0.0015514752
0.0015515055
0.0020109989
0.0020109667
0.0020109595
0.0020109918
0.0025809157
0.0025808821
0.0025808736
0.0025809076
0.0032800776
0.0032800428
0.0032800325
0.0032800684
0.0041282014
0.004128167
0.0041281549
0.0041281906
0.0051452639
0.0051452307
0.0051452174
0.0051452532
0.006350673
0.006350641
0.0063506252
0.0063506625
0.007762247
0.0077622171
0.0077621993
0.0077622352
0.0093950384
0.0093950109
0.0093949924
0.0093950272
0.011260035
0.011260012
0.011259992
0.011260025
0.013362795
0.013362776
0.013362755
0.013362787
0.015702095
0.01570208
0.015702058
0.015702089
0.018268686
0.018268676
0.018268653
0.018268682
0.021044265
0.021044255
0.021044234
0.021044262
0.024000742
0.024000738
0.024000717
0.024000742
0.027099976
0.027099978
0.027099956
0.027099981
0.030293948
0.03029395
0.03029393
0.030293954
0.033525527
0.033525525
0.033525514
0.033525536
0.036729862
0.03672986
0.036729845
0.036729867
0.039836278
0.039836276
0.039836252
0.039836274
0.042770749
0.042770724
0.042770711
0.042770736
0.045458705
0.045458676
0.045458673
0.045458689
0.047828185
0.047828163
0.047828157
0.047828159
0.049813029
0.049813005
0.049812993
0.049812991
0.051355911
0.051355876
0.051355885
0.051355874
0.052411126
0.052411112
0.05241114
0.052411094
0.052946881
0.052946903
0.052946943
0.052946856
-0.003814926
-0.003814947
-0.0038149459
-0.0038149292
0.0049211096
0.004921106
0.0049211063
0.0049211084
0.00091082326
0.00091082922
0.00091082887
0.00091082383
8.7814529e-05
8.782282e-05
8.7822562e-05
8.7815414e-05
1.3324134e-05
1.332987e-05
1.3329328e-05
1.3325309e-05
-3.7501879e-05
-3.7502935e-05
-3.7503463e-05
-3.7501033e-05
-5.7636495e-05
-5.7639381e-05
-5.7639757e-05
-5.7636342e-05
-4.0200636e-05
-4.0204081e-05
-4.0204395e-05
-4.0200666e-05
-1.6913729e-05
-1.6917416e-05
-1.6917676e-05
-1.6913858e-05
-9.5236162e-06
-9.5268015e-06
-9.5270006e-06
-9.5238549e-06
-1.9713472e-05
-1.9715635e-05
-1.971577e-05
-1.9713759e-05
-3.8854888e-05
-3.885611e-05
-3.88562e-05
-3.8855149e-05
-5.7665167e-05
-5.7665925e-05
-5.7665998e-05
-5.7665345e-05
-7.0499466e-05
-7.0500297e-05
-7.0500365e-05
-7.049956e-05
-7.5641427e-05
-7.5642709e-05
-7.5642782e-05
-7.5641486e-05
-7.393324e-05
-7.3935147e-05
-7.3935238e-05
-7.3933291e-05
-6.7252796e-05
-6.7255387e-05
-6.7255497e-05
-6.7252866e-05
-5.7445113e-05
-5.7448377e-05
-5.7448508e-05
-5.7445224e-05
-4.5779148e-05
-4.5783079e-05
-4.5783248e-05
-4.5779304e-05
-3.278481e-05
-3.2789459e-05
-3.278967e-05
-3.2785029e-05
-1.8290762e-05
-1.8296226e-05
-1.8296481e-05
-1.8291057e-05
-1.5246192e-06
-1.5310389e-06
-1.5313602e-06
-1.525e-06
1.8806658e-05
1.879911e-05
1.879869e-05
1.8806165e-05
4.4492913e-05
4.4484026e-05
4.4483485e-05
4.4492279e-05
7.7861059e-05
7.7850615e-05
7.7849912e-05
7.7860236e-05
0.0001218723
0.00012186009
0.00012185917
0.00012187124
0.00018026353
0.00018024934
0.00018024816
0.00018026217
0.00025771922
0.00025770289
0.00025770137
0.00025771749
0.00036006086
0.00036004221
0.00036004024
0.00036005867
0.00049444085
0.00049441976
0.0004944173
0.00049443807
0.00066952782
0.00066950434
0.00066950122
0.00066952444
0.00089566745
0.00089564158
0.00089563757
0.00089566332
0.0011849995
0.0011849713
0.0011849664
0.0011849945
0.0015515109
0.0015514806
0.0015514746
0.0015515049
0.0020109983
0.0020109662
0.0020109589
0.0020109912
0.0025809151
0.0025808815
0.0025808729
0.0025809069
0.0032800766
0.0032800421
0.0032800319
0.0032800672
0.0041282
0.0041281659
0.0041281539
0.0041281905
0.0051452639
0.0051452307
0.0051452167
0.0051452532
0.006350673
0.006350641
0.0063506252
0.0063506612
0.0077622464
0.0077622158
0.0077621986
0.0077622345
0.0093950378
0.0093950109
0.0093949917
0.0093950266
0.011260035
0.011260012
0.011259992
0.011260025
0.013362796
0.013362776
0.013362755
0.013362787
0.015702095
0.01570208
0.015702058
0.015702089
0.018268686
0.018268676
0.018268653
0.018268683
0.021044262
0.021044258
0.021044238
0.02104426
0.024000746
0.024000741
0.024000721
0.024000745
0.027099983
0.027099978
0.027099956
0.027099987
0.030293948
0.03029395
0.03029393
0.030293954
0.033525527
0.033525531
0.033525514
0.033525536
0.036729862
0.03672986
0.036729846
0.036729867
0.039836285
0.039836269
0.039836259
0.039836281
0.042770749
0.042770731
0.042770718
0.042770736
0.045458704
0.045458683
0.045458667
0.045458682
0.047828192
0.047828163
0.047828157
0.047828165
0.049813029
0.049812998
0.049813
0.049812998
0.051355904
0.051355876
0.051355879
0.051355867
0.052411119
0.052411112
0.052411133
0.052411088
0.052946881
0.052946896
0.052946943
0.052946856
-0.0038149227
-0.003814945
-0.0038149438
-0.0038149257
0.0049211108
0.0049211068
0.0049211071
0.0049211095
0.00091082259
0.0009108289
0.00091082853
0.00091082305
8.7813897e-05
8.7822213e-05
8.782194e-05
8.7814806e-05
1.3322892e-05
1.3328992e-05
1.3328443e-05
1.3324001e-05
-3.7503054e-05
-3.750382e-05
-3.7504368e-05
-3.7502196e-05
-5.7636934e-05
-5.7639763e-05
-5.7640156e-05
-5.7636766e-05
-4.0200848e-05
-4.0204273e-05
-4.0204612e-05
-4.0200884e-05
-1.6913835e-05
-1.6917493e-05
-1.6917775e-05
-1.6913959e-05
-9.5235677e-06
-9.5267452e-06
-9.52695e-06
-9.5238121e-06
-1.9713321e-05
-1.9715492e-05
-1.9715631e-05
-1.9713618e-05
-3.8854738e-05
-3.8855967e-05
-3.8856059e-05
-3.8854995e-05
-5.7665064e-05
-5.7665836e-05
-5.766591e-05
-5.7665243e-05
-7.0499422e-05
-7.0500261e-05
-7.050033e-05
-7.049953e-05
-7.5641442e-05
-7.5642714e-05
-7.5642786e-05
-7.5641501e-05
-7.3933275e-05
-7.3935172e-05
-7.3935262e-05
-7.3933326e-05
-6.7252831e-05
-6.7255411e-05
-6.7255521e-05
-6.7252908e-05
-5.7445142e-05
-5.7448388e-05
-5.7448525e-05
-5.7445253e-05
-4.5779159e-05
-4.5783077e-05
-4.5783244e-05
-4.5779313e-05
-3.2784808e-05
-3.278945e-05
-3.2789646e-05
-3.2785018e-05
-1.8290741e-05
-1.8296197e-05
-1.8296442e-05
-1.8291026e-05
-1.5245794e-06
-1.5309904e-06
-1.5313076e-06
-1.524956e-06
1.8806716e-05
1.8799172e-05
1.8798764e-05
1.8806229e-05
4.449299e-05
4.4484114e-05
4.4483579e-05
4.449237e-05
7.786116e-05
7.7850723e-05
7.7850034e-05
7.7860353e-05
0.00012187243
0.00012186022
0.00012185933
0.00012187138
0.00018026369
0.00018024951
0.00018024834
0.00018026235
0.00025771942
0.00025770309
0.00025770159
0.00025771771
0.00036006108
0.00036004242
0.00036004049
0.00036005888
0.00049444114
0.00049442006
0.00049441764
0.00049443843
0.00066952825
0.00066950474
0.00066950164
0.0006695249
0.00089566789
0.00089564191
0.000895638
0.00089566371
0.001185
0.0011849717
0.0011849669
0.001184995
0.0015515114
0.0015514811
0.0015514752
0.0015515055
0.0020109989
0.0020109667
0.0020109595
0.0020109918
0.0025809157
0.0025808821
0.0025808736
0.0025809076
0.0032800776
0.0032800428
0.0032800325
0.0032800684
0.0041282014
0.004128167
0.0041281549
0.0041281906
0.0051452639
0.0051452307
0.0051452174
0.0051452532
0.006350673
0.006350641
0.0063506252
0.0063506625
0.007762247
0.0077622171
0.0077621993
0.0077622352
0.0093950384
0.0093950109
0.0093949924
0.0093950272
0.011260035
0.011260012
0.011259992
0.011260025
0.013362795
0.013362776
0.013362755
0.013362787
0.015702095
0.01570208
0.015702058
0.015702089
0.018268686
0.018268676
0.018268653
0.018268682
0.021044265
0.021044255
0.021044234
0.021044262
0.024000742
0.024000738
0.024000717
0.024000742
0.027099976
0.027099978
0.027099956
0.027099981
0.030293948
0.03029395
0.03029393
0.030293954
0.033525527
0.033525525
0.033525514
0.033525536
0.036729862
0.03672986
0.036729845
0.036729867
0.039836278
0.039836276
0.039836252
0.039836274
0.042770749
0.042770724
0.042770711
0.042770736
0.045458705
0.045458676
0.045458673
0.045458689
0.047828185
0.047828163
0.047828157
0.047828159
0.049813029
0.049813005
0.049812993
0.049812991
0.051355911
0.051355876
0.051355885
0.051355874
0.052411126
0.052411112
0.05241114
0.052411094
0.052946881
0.052946903
0.052946943
0.052946856
-0.0038149259
-0.003814947
-0.0038149459
-0.0038149292
0.0049211096
0.004921106
0.0049211063
0.0049211084
0.00091082326
0.00091082921
0.00091082887
0.00091082384
8.7814523e-05
8.7822818e-05
8.7822561e-05
8.7815409e-05
1.3324135e-05
1.3329869e-05
1.3329321e-05
1.3325317e-05
-3.7501878e-05
-3.7502936e-05
-3.7503463e-05
-3.7501032e-05
-5.7636494e-05
-5.7639381e-05
-5.7639757e-05
-5.7636349e-05
-4.0200629e-05
-4.0204081e-05
-4.0204395e-05
-4.0200659e-05
-1.6913729e-05
-1.6917416e-05
-1.6917676e-05
-1.6913851e-05
-9.5236161e-06
-9.5268018e-06
-9.5270007e-06
-9.5238546e-06
-1.9713472e-05
-1.9715635e-05
-1.971577e-05
-1.9713759e-05
-3.8854888e-05
-3.885611e-05
-3.88562e-05
-3.8855149e-05
-5.7665167e-05
-5.7665925e-05
-5.7665998e-05
-5.7665345e-05
-7.0499466e-05
-7.0500297e-05
-7.0500365e-05
-7.049956e-05
-7.5641427e-05
-7.5642709e-05
-7.5642782e-05
-7.5641486e-05
-7.393324e-05
-7.3935147e-05
-7.3935238e-05
-7.3933291e-05
-6.7252796e-05
-6.7255387e-05
-6.7255497e-05
-6.7252866e-05
-5.7445113e-05
-5.7448377e-05
-5.7448508e-05
-5.7445224e-05
-4.5779148e-05
-4.5783079e-05
-4.5783248e-05
-4.5779304e-05
-3.278481e-05
-3.2789459e-05
-3.278967e-05
-3.2785029e-05
-1.8290762e-05
-1.8296226e-05
-1.8296481e-05
-1.8291057e-05
-1.5246192e-06
-1.5310389e-06
-1.5313602e-06
-1.525e-06
1.8806658e-05
1.879911e-05
1.879869e-05
1.8806165e-05
4.4492913e-05
4.4484026e-05
4.4483485e-05
4.4492279e-05
7.7861059e-05
7.7850615e-05
7.7849912e-05
7.7860236e-05
0.0001218723
0.00012186009
0.00012185917
0.00012187124
0.00018026353
0.00018024934
0.00018024816
0.00018026217
0.00025771922
0.00025770289
0.00025770137
0.00025771749
0.00036006086
0.00036004221
0.00036004024
0.00036005867
0.00049444085
0.00049441976
0.0004944173
0.00049443807
0.00066952782
0.00066950434
0.00066950122
0.00066952444
0.00089566745
0.00089564158
0.00089563757
0.00089566332
0.0011849995
0.0011849713
0.0011849664
0.0011849945
0.0015515109
0.0015514806
0.0015514746
0.0015515049
0.0020109983
0.0020109662
0.0020109589
0.0020109912
0.0025809151
0.0025808815
0.0025808729
0.0025809069
0.0032800766
0.0032800421
0.0032800319
0.0032800672
0.0041282
0.0041281659
0.0041281539
0.0041281905
0.0051452639
0.0051452307
0.0051452167
0.0051452532
0.006350673
0.006350641
0.0063506252
0.0063506612
0.0077622464
0.0077622158
0.0077621986
0.0077622345
0.0093950378
0.0093950109
0.0093949917
0.0093950266
0.011260035
0.011260012
0.011259992
0.011260025
0.013362796
0.013362776
0.013362755
0.013362787
0.015702095
0.01570208
0.015702058
0.015702089
0.018268686
0.018268676
0.018268653
0.018268683
0.021044262
0.021044258
0.021044238
0.02104426
0.024000746
0.024000741
0.024000721
0.024000745
0.027099983
0.027099978
0.027099956
0.027099987
0.030293948
0.03029395
0.03029393
0.030293954
0.033525527
0.033525531
0.033525514
0.033525536
0.036729862
0.03672986
0.036729846
0.036729867
0.039836285
0.039836269
0.039836259
0.039836281
0.042770749
0.042770731
0.042770718
0.042770736
0.045458704
0.045458683
0.045458667
0.045458682
0.047828192
0.047828163
0.047828157
0.047828165
0.049813029
0.049812998
0.049813
0.049812998
0.051355904
0.051355876
0.051355879
0.051355867
0.052411119
0.052411112
0.052411133
0.052411088
0.052946881
0.052946896
0.052946943
0.052946856
)
;

boundaryField
{
    movingWall
    {
        type            calculated;
        value           nonuniform List<scalar> 
16
(
0.053081853
0.053081853
0.053081853
0.053081853
0.053081881
0.053081881
0.053081881
0.053081881
0.053081935
0.053081935
0.053081935
0.053081935
0.053081827
0.053081827
0.053081827
0.053081827
)
;
    }
    CPLReceiveMD
    {
        type            calculated;
        value           nonuniform List<scalar> 
16
(
-0.015785094
-0.015785097
-0.015785094
-0.015785097
-0.015785123
-0.015785126
-0.015785124
-0.015785126
-0.015785123
-0.015785125
-0.015785123
-0.015785125
-0.015785099
-0.015785101
-0.015785098
-0.015785101
)
;
    }
    streamwiseIn
    {
        type            cyclic;
    }
    streamwiseOut
    {
        type            cyclic;
    }
    front
    {
        type            cyclic;
    }
    back
    {
        type            cyclic;
    }
}


// ************************************************************************* //
