/*--------------------------------*- C++ -*----------------------------------*\
| =========                 |                                                 |
| \\      /  F ield         | OpenFOAM: The Open Source CFD Toolbox           |
|  \\    /   O peration     | Version:  3.0.x                                 |
|   \\  /    A nd           | Web:      www.OpenFOAM.org                      |
|    \\/     M anipulation  |                                                 |
\*---------------------------------------------------------------------------*/
FoamFile
{
    version     2.0;
    format      ascii;
    class       volScalarField;
    location    "75";
    object      sigmayz;
}
// * * * * * * * * * * * * * * * * * * * * * * * * * * * * * * * * * * * * * //

dimensions      [0 2 -2 0 0 0 0];

internalField   nonuniform List<scalar> 
960
(
-4.6489518e-12
-1.5919836e-11
-7.9799321e-12
-1.8470752e-11
-5.8117369e-12
-6.5159015e-12
-2.6701531e-12
-5.3770762e-12
-4.290326e-12
5.1757794e-13
1.4287593e-13
2.5158951e-12
-3.1637192e-12
4.04113e-12
1.9694649e-13
5.5391134e-12
-2.1204262e-12
5.166244e-12
5.045523e-13
6.3771958e-12
-9.7200956e-13
5.3476802e-12
5.9375808e-13
6.3947951e-12
2.0311779e-13
5.2216469e-12
6.4931709e-13
6.0427306e-12
9.7320304e-13
4.8214954e-12
1.199446e-12
5.4854803e-12
1.3403297e-12
4.3964923e-12
1.7716522e-12
4.8218978e-12
1.5445547e-12
3.9123024e-12
2.0803692e-12
4.1347939e-12
1.6170303e-12
3.376534e-12
2.0107236e-12
3.4683374e-12
1.5008502e-12
2.8312235e-12
1.7830565e-12
2.8518751e-12
1.3332123e-12
2.3274764e-12
1.5211619e-12
2.3012427e-12
1.1410425e-12
1.8835164e-12
1.2734209e-12
1.8288889e-12
9.4987358e-13
1.5029278e-12
1.0489895e-12
1.4402197e-12
7.743355e-13
1.1844464e-12
8.5039896e-13
1.1256302e-12
6.2119575e-13
9.2394396e-13
6.800952e-13
8.7432414e-13
4.9205179e-13
7.1460754e-13
5.372324e-13
6.7624377e-13
3.860982e-13
5.4975313e-13
4.1995996e-13
5.2193411e-13
3.005519e-13
4.2137343e-13
3.2528484e-13
4.0276133e-13
2.3245696e-13
3.2213596e-13
2.5040063e-13
3.1116638e-13
1.7874296e-13
2.4632782e-13
1.9783074e-13
2.4113116e-13
1.3662703e-13
1.8875028e-13
1.583094e-13
1.8743949e-13
1.039435e-13
1.4510978e-13
1.2195166e-13
1.4592603e-13
7.8640592e-14
1.1230791e-13
9.2324741e-14
1.1379221e-13
5.9198606e-14
8.6796663e-14
6.9188189e-14
8.888333e-14
4.4458154e-14
6.6820914e-14
5.1640836e-14
6.9744454e-14
3.3012286e-14
5.145778e-14
3.8587031e-14
5.4578885e-14
2.4618422e-14
3.9579332e-14
2.8680613e-14
4.2887332e-14
1.8278412e-14
3.0585946e-14
2.151306e-14
3.3632045e-14
1.3398229e-14
2.3638968e-14
1.5939741e-14
2.63625e-14
9.7834126e-15
1.8317927e-14
1.1726391e-14
2.0694192e-14
7.290171e-15
1.4266704e-14
8.6981754e-15
1.6293317e-14
5.3056267e-15
1.1010719e-14
6.5582772e-15
1.2864878e-14
3.743838e-15
8.6088745e-15
4.7098522e-15
9.9760329e-15
2.7095025e-15
6.6476935e-15
3.4125852e-15
7.714716e-15
1.9843331e-15
5.0659116e-15
2.6116153e-15
6.0196203e-15
1.3657364e-15
3.9828904e-15
1.7661729e-15
4.6760015e-15
9.9278212e-16
3.0291509e-15
1.3445643e-15
3.479152e-15
6.7786541e-16
2.3434492e-15
9.9086459e-16
2.8972574e-15
4.0555407e-16
1.7371373e-15
6.8765786e-16
2.0737646e-15
3.3172828e-16
1.3587053e-15
5.8681248e-16
1.655846e-15
1.1429101e-16
5.2913382e-16
3.4570961e-16
6.2920511e-16
7.8298965e-17
4.0324694e-16
1.2582471e-16
9.7797543e-16
2.1993495e-16
6.3963605e-16
8.8144724e-17
6.9542701e-16
3.541887e-17
5.6541176e-16
6.2149564e-17
6.0678801e-16
2.0041792e-17
3.4208923e-16
4.6014385e-17
3.7326251e-16
8.6739009e-18
2.9962546e-16
8.6229251e-17
3.2086406e-16
3.4077493e-18
2.6754886e-16
4.4113431e-17
1.1435713e-16
4.4870413e-18
7.5960918e-17
1.6747732e-17
2.520146e-16
5.1120778e-18
2.2096837e-16
8.6634498e-18
6.7832386e-17
7.2927798e-19
3.7013683e-17
7.3717786e-18
5.5554675e-17
-4.7058683e-18
5.0218682e-17
1.0653936e-17
7.6441227e-17
-5.8443214e-18
1.8597601e-16
1.0342592e-17
3.1331293e-17
-1.080341e-18
1.8344322e-17
2.3530213e-18
1.908127e-17
4.2919311e-19
1.4519933e-17
2.8914122e-18
9.2502827e-18
-7.0651717e-18
1.2141156e-17
1.3218673e-17
1.9192392e-18
-1.7827261e-16
1.0528765e-17
1.1296336e-17
2.6270547e-19
1.6091861e-17
7.7846953e-18
-7.4498842e-18
5.0405587e-18
3.8640309e-17
5.8481475e-18
-1.7161186e-17
1.9788044e-17
2.1611647e-10
1.1629784e-10
-1.3990638e-11
1.2501665e-10
-3.3333018e-10
-9.6966446e-11
-5.9480015e-11
-1.0108621e-10
1.3752053e-10
-4.6377507e-11
-9.31343e-12
-4.8244876e-11
9.3397528e-11
-3.6431168e-11
3.8655787e-12
-3.9038071e-11
1.2515821e-10
-1.9852087e-11
9.6999682e-12
-2.4922952e-11
1.238128e-10
-4.9841784e-12
1.502106e-11
-1.0296723e-11
1.072779e-10
3.1461768e-12
1.7844701e-11
-5.5153397e-13
8.5047929e-11
6.9342771e-12
1.7907677e-11
4.136086e-12
6.3245735e-11
7.8250173e-12
1.6419161e-11
5.7186497e-12
4.5599342e-11
7.4672006e-12
1.4215124e-11
5.9663335e-12
3.2418157e-11
6.7759987e-12
1.191995e-11
5.7416239e-12
2.2985586e-11
6.0604107e-12
9.9151759e-12
5.361971e-12
1.6750999e-11
5.4152074e-12
8.2225305e-12
4.9350906e-12
1.2462329e-11
4.8076837e-12
6.8005892e-12
4.466379e-12
9.4002933e-12
4.212246e-12
5.5953232e-12
3.9629554e-12
7.1532365e-12
3.6278568e-12
4.5683835e-12
3.4425233e-12
5.4654608e-12
3.0682429e-12
3.6955536e-12
2.9288996e-12
4.1773163e-12
2.5498768e-12
2.9591131e-12
2.4447784e-12
3.1869149e-12
2.085363e-12
2.3458046e-12
2.0067677e-12
2.4238327e-12
1.6818287e-12
1.8421566e-12
1.6239509e-12
1.8376203e-12
1.3404536e-12
1.4357231e-12
1.2986024e-12
1.3889121e-12
1.0585852e-12
1.1222246e-12
1.02877e-12
1.0468847e-12
8.3062233e-13
8.8655146e-13
8.0888814e-13
7.8796568e-13
6.5074489e-13
6.9266715e-13
6.3129113e-13
5.9220025e-13
5.0991613e-13
5.2891751e-13
4.8940493e-13
4.4463707e-13
3.9659292e-13
4.0123284e-13
3.7694632e-13
3.335985e-13
3.0453591e-13
3.0373574e-13
2.890879e-13
2.5031096e-13
2.3210812e-13
2.2937845e-13
2.2084559e-13
1.878532e-13
1.7606074e-13
1.7340856e-13
1.6833872e-13
1.4122148e-13
1.3345643e-13
1.3095289e-13
1.2791807e-13
1.0621642e-13
1.0090876e-13
9.8799157e-14
9.7166401e-14
7.99879e-14
7.6339748e-14
7.463752e-14
7.3641827e-14
6.0244193e-14
5.7623105e-14
5.6310125e-14
5.5802787e-14
4.5307245e-14
4.3526716e-14
4.2404761e-14
4.1972777e-14
3.4216115e-14
3.2664122e-14
3.2028394e-14
3.1632444e-14
2.5678701e-14
2.4613732e-14
2.4262059e-14
2.3884572e-14
1.9343776e-14
1.8556806e-14
1.8291575e-14
1.7926702e-14
1.4621544e-14
1.3752199e-14
1.3713916e-14
1.3361695e-14
1.0986426e-14
1.0349581e-14
1.0351626e-14
1.0013707e-14
8.2939986e-15
7.8768756e-15
7.7377098e-15
7.4157507e-15
6.2689801e-15
5.7295397e-15
5.9371973e-15
5.6325421e-15
4.6631666e-15
4.3262908e-15
4.5405527e-15
4.0881614e-15
3.4143893e-15
3.2746849e-15
3.3241254e-15
3.2216889e-15
2.6420964e-15
1.1985419e-15
2.4105192e-15
2.3221284e-15
1.9798669e-15
1.7225577e-15
1.7645219e-15
1.6912791e-15
1.4004798e-15
1.3253469e-15
1.3614538e-15
1.3032516e-15
1.0481256e-15
9.8874532e-16
1.0178154e-15
9.7032418e-16
8.2439496e-16
6.9535348e-16
7.688003e-16
6.8172721e-16
6.0232936e-16
4.3440084e-16
5.7035097e-16
5.9024715e-16
5.5688325e-16
5.299771e-16
3.8040553e-16
3.5525034e-16
3.3057546e-16
3.0905788e-16
3.2647424e-16
3.0631655e-16
1.1957907e-16
2.6624865e-16
2.858899e-16
1.0516013e-16
2.5301914e-16
1.3677502e-16
2.5312825e-16
1.6154787e-16
6.4613683e-17
2.1106665e-16
2.2936559e-16
6.1333884e-17
4.5963732e-17
2.923106e-17
2.1525939e-16
2.1010538e-16
1.9477618e-16
1.8667435e-16
4.0132447e-17
1.9659316e-16
2.2429939e-17
1.4316234e-17
1.9541951e-16
1.9956859e-17
1.7859371e-17
1.7900615e-17
1.5581678e-17
5.8264102e-18
1.1207268e-17
2.1160124e-17
4.053342e-17
8.8825653e-19
4.6088329e-17
6.833584e-17
3.2609629e-17
2.5397708e-17
4.6489517e-12
1.5919836e-11
7.9799321e-12
1.8470752e-11
5.8117369e-12
6.5159015e-12
2.6701531e-12
5.3770762e-12
4.2903261e-12
-5.1757794e-13
-1.4287593e-13
-2.5158951e-12
3.1637192e-12
-4.04113e-12
-1.9694649e-13
-5.5391134e-12
2.1204261e-12
-5.166244e-12
-5.045523e-13
-6.3771958e-12
9.7200956e-13
-5.3476802e-12
-5.9375808e-13
-6.3947951e-12
-2.0311772e-13
-5.2216469e-12
-6.4931709e-13
-6.0427306e-12
-9.7320304e-13
-4.8214954e-12
-1.199446e-12
-5.4854803e-12
-1.3403297e-12
-4.3964923e-12
-1.7716522e-12
-4.8218978e-12
-1.5445547e-12
-3.9123024e-12
-2.0803692e-12
-4.1347939e-12
-1.6170303e-12
-3.376534e-12
-2.0107236e-12
-3.4683374e-12
-1.5008502e-12
-2.8312235e-12
-1.7830565e-12
-2.8518751e-12
-1.3332123e-12
-2.3274764e-12
-1.5211619e-12
-2.3012427e-12
-1.1410425e-12
-1.8835164e-12
-1.2734209e-12
-1.8288889e-12
-9.4987358e-13
-1.5029278e-12
-1.0489895e-12
-1.4402197e-12
-7.743355e-13
-1.1844464e-12
-8.5039896e-13
-1.1256302e-12
-6.2119576e-13
-9.2394396e-13
-6.800952e-13
-8.7432414e-13
-4.9205179e-13
-7.1460754e-13
-5.372324e-13
-6.7624377e-13
-3.860982e-13
-5.4975313e-13
-4.1995996e-13
-5.2193411e-13
-3.005519e-13
-4.2137343e-13
-3.2528484e-13
-4.0276133e-13
-2.3245696e-13
-3.2213596e-13
-2.5040063e-13
-3.1116638e-13
-1.7874296e-13
-2.4632782e-13
-1.9783074e-13
-2.4113116e-13
-1.3662703e-13
-1.8875028e-13
-1.583094e-13
-1.8743949e-13
-1.039435e-13
-1.4510978e-13
-1.2195166e-13
-1.4592603e-13
-7.8640592e-14
-1.1230791e-13
-9.2324741e-14
-1.1379221e-13
-5.9198606e-14
-8.6796663e-14
-6.9188189e-14
-8.888333e-14
-4.4458155e-14
-6.6820914e-14
-5.1640836e-14
-6.9744454e-14
-3.3012286e-14
-5.145778e-14
-3.8587031e-14
-5.4578885e-14
-2.4618421e-14
-3.9579333e-14
-2.8680613e-14
-4.2887332e-14
-1.8278412e-14
-3.0585946e-14
-2.151306e-14
-3.3632045e-14
-1.3398229e-14
-2.3638967e-14
-1.5939741e-14
-2.63625e-14
-9.7834127e-15
-1.8317927e-14
-1.1726391e-14
-2.0694192e-14
-7.290171e-15
-1.4266704e-14
-8.6981754e-15
-1.6293317e-14
-5.3056267e-15
-1.1010719e-14
-6.5582773e-15
-1.2864878e-14
-3.743838e-15
-8.6088745e-15
-4.7098522e-15
-9.9760329e-15
-2.7095025e-15
-6.6476935e-15
-3.4125851e-15
-7.7147161e-15
-1.9843331e-15
-5.0659116e-15
-2.6116153e-15
-6.0196203e-15
-1.3657364e-15
-3.9828904e-15
-1.7661729e-15
-4.6760015e-15
-9.9278211e-16
-3.0291509e-15
-1.3445643e-15
-3.479152e-15
-6.778654e-16
-2.3434492e-15
-9.9086459e-16
-2.8972574e-15
-4.0555407e-16
-1.7371373e-15
-6.8765786e-16
-2.0737646e-15
-3.3172828e-16
-1.3587053e-15
-5.8681248e-16
-1.655846e-15
-1.1429102e-16
-5.2913382e-16
-3.4570961e-16
-6.2920511e-16
-7.8298966e-17
-4.0324694e-16
-1.2582471e-16
-9.7797543e-16
-2.1993495e-16
-6.3963603e-16
-8.8144724e-17
-6.95427e-16
-3.5418869e-17
-5.6541175e-16
-6.2149563e-17
-6.0678802e-16
-2.0041795e-17
-3.4208923e-16
-4.601438e-17
-3.7326251e-16
-8.6739027e-18
-2.9962545e-16
-8.6229254e-17
-3.2086406e-16
-3.4077497e-18
-2.6754885e-16
-4.4113432e-17
-1.1435712e-16
-4.4870415e-18
-7.596092e-17
-1.6747731e-17
-2.520146e-16
-5.1120789e-18
-2.2096836e-16
-8.6634492e-18
-6.7832383e-17
-7.2927851e-19
-3.7013684e-17
-7.3717775e-18
-5.5554675e-17
4.7058658e-18
-5.0218681e-17
-1.0653936e-17
-7.6441227e-17
5.8443202e-18
-1.8597601e-16
-1.0342594e-17
-3.1331294e-17
1.08034e-18
-1.8344324e-17
-2.3530162e-18
-1.908127e-17
-4.2919371e-19
-1.4519936e-17
-2.8914134e-18
-9.2502827e-18
7.0651722e-18
-1.2141161e-17
-1.3218674e-17
-1.9192385e-18
1.7827261e-16
-1.0528768e-17
-1.1296337e-17
-2.6270415e-19
-1.6091863e-17
-7.7847009e-18
7.4498823e-18
-5.0405587e-18
-3.864031e-17
-5.8481584e-18
1.7161184e-17
-1.9788044e-17
-2.1611647e-10
-1.1629784e-10
1.3990638e-11
-1.2501665e-10
3.3333018e-10
9.6966446e-11
5.9480015e-11
1.0108621e-10
-1.3752053e-10
4.6377507e-11
9.31343e-12
4.8244876e-11
-9.3397528e-11
3.6431168e-11
-3.8655787e-12
3.9038071e-11
-1.2515821e-10
1.9852087e-11
-9.6999682e-12
2.4922952e-11
-1.238128e-10
4.9841784e-12
-1.502106e-11
1.0296723e-11
-1.072779e-10
-3.1461768e-12
-1.7844701e-11
5.5153397e-13
-8.5047929e-11
-6.9342771e-12
-1.7907677e-11
-4.136086e-12
-6.3245735e-11
-7.8250173e-12
-1.6419161e-11
-5.7186497e-12
-4.5599342e-11
-7.4672006e-12
-1.4215124e-11
-5.9663335e-12
-3.2418157e-11
-6.7759987e-12
-1.191995e-11
-5.7416239e-12
-2.2985586e-11
-6.0604107e-12
-9.9151759e-12
-5.361971e-12
-1.6750999e-11
-5.4152074e-12
-8.2225305e-12
-4.9350906e-12
-1.2462329e-11
-4.8076837e-12
-6.8005892e-12
-4.466379e-12
-9.4002933e-12
-4.212246e-12
-5.5953232e-12
-3.9629554e-12
-7.1532365e-12
-3.6278568e-12
-4.5683835e-12
-3.4425233e-12
-5.4654608e-12
-3.0682429e-12
-3.6955536e-12
-2.9288996e-12
-4.1773163e-12
-2.5498768e-12
-2.9591131e-12
-2.4447784e-12
-3.1869149e-12
-2.085363e-12
-2.3458046e-12
-2.0067677e-12
-2.4238327e-12
-1.6818287e-12
-1.8421566e-12
-1.6239509e-12
-1.8376203e-12
-1.3404536e-12
-1.4357231e-12
-1.2986024e-12
-1.3889121e-12
-1.0585852e-12
-1.1222246e-12
-1.02877e-12
-1.0468847e-12
-8.3062233e-13
-8.8655146e-13
-8.0888814e-13
-7.8796568e-13
-6.5074489e-13
-6.9266715e-13
-6.3129113e-13
-5.9220025e-13
-5.0991613e-13
-5.2891751e-13
-4.8940493e-13
-4.4463707e-13
-3.9659292e-13
-4.0123284e-13
-3.7694632e-13
-3.335985e-13
-3.0453591e-13
-3.0373574e-13
-2.890879e-13
-2.5031096e-13
-2.3210812e-13
-2.2937845e-13
-2.2084559e-13
-1.878532e-13
-1.7606074e-13
-1.7340856e-13
-1.6833872e-13
-1.4122148e-13
-1.3345643e-13
-1.3095289e-13
-1.2791807e-13
-1.0621642e-13
-1.0090876e-13
-9.8799157e-14
-9.7166401e-14
-7.99879e-14
-7.6339748e-14
-7.463752e-14
-7.3641827e-14
-6.0244193e-14
-5.7623105e-14
-5.6310125e-14
-5.5802787e-14
-4.5307245e-14
-4.3526716e-14
-4.2404761e-14
-4.1972777e-14
-3.4216115e-14
-3.2664122e-14
-3.2028394e-14
-3.1632444e-14
-2.5678701e-14
-2.4613732e-14
-2.4262059e-14
-2.3884572e-14
-1.9343776e-14
-1.8556806e-14
-1.8291575e-14
-1.7926702e-14
-1.4621544e-14
-1.3752199e-14
-1.3713916e-14
-1.3361695e-14
-1.0986426e-14
-1.0349581e-14
-1.0351626e-14
-1.0013707e-14
-8.2939986e-15
-7.8768756e-15
-7.7377098e-15
-7.4157507e-15
-6.2689801e-15
-5.7295397e-15
-5.9371973e-15
-5.6325421e-15
-4.6631666e-15
-4.3262907e-15
-4.5405527e-15
-4.0881614e-15
-3.4143893e-15
-3.2746849e-15
-3.3241254e-15
-3.2216888e-15
-2.6420964e-15
-1.198542e-15
-2.4105192e-15
-2.3221284e-15
-1.9798669e-15
-1.7225577e-15
-1.7645219e-15
-1.6912792e-15
-1.4004798e-15
-1.3253469e-15
-1.3614538e-15
-1.3032516e-15
-1.0481256e-15
-9.887453e-16
-1.0178154e-15
-9.7032418e-16
-8.2439496e-16
-6.9535354e-16
-7.688003e-16
-6.8172722e-16
-6.0232936e-16
-4.3440084e-16
-5.7035097e-16
-5.9024715e-16
-5.5688325e-16
-5.2997711e-16
-3.8040553e-16
-3.5525034e-16
-3.3057546e-16
-3.0905789e-16
-3.2647423e-16
-3.0631655e-16
-1.1957907e-16
-2.6624865e-16
-2.8588991e-16
-1.0516014e-16
-2.5301914e-16
-1.3677502e-16
-2.5312826e-16
-1.6154787e-16
-6.4613683e-17
-2.1106665e-16
-2.2936558e-16
-6.1333877e-17
-4.5963731e-17
-2.9231062e-17
-2.1525939e-16
-2.1010538e-16
-1.9477618e-16
-1.8667436e-16
-4.0132446e-17
-1.9659316e-16
-2.2429941e-17
-1.4316236e-17
-1.9541951e-16
-1.9956857e-17
-1.7859371e-17
-1.7900619e-17
-1.5581679e-17
-5.8264082e-18
-1.1207269e-17
-2.1160128e-17
-4.0533421e-17
-8.8825389e-19
-4.6088329e-17
-6.833584e-17
-3.260963e-17
-2.5397705e-17
)
;

boundaryField
{
    movingWall
    {
        type            calculated;
        value           nonuniform List<scalar> 
16
(
5.0748412e-17
9.943191e-17
-5.0748412e-17
-9.943191e-17
3.836396e-18
1.155592e-16
-3.8364105e-18
-1.155592e-16
-1.443189e-17
4.3536131e-17
1.4431888e-17
-4.3536131e-17
4.8298547e-17
4.8075826e-17
-4.8298547e-17
-4.8075821e-17
)
;
    }
    CPLReceiveMD
    {
        type            calculated;
        value           nonuniform List<scalar> 
16
(
-5.3680669e-12
1.1453264e-09
5.3680669e-12
-1.1453264e-09
-2.1406036e-11
3.6333686e-10
2.1406036e-11
-3.6333686e-10
-1.193929e-11
6.5278063e-11
1.193929e-11
-6.5278063e-11
-2.5817972e-11
3.8403015e-10
2.5817972e-11
-3.8403015e-10
)
;
    }
    streamwiseIn
    {
        type            cyclic;
    }
    streamwiseOut
    {
        type            cyclic;
    }
    front
    {
        type            cyclic;
    }
    back
    {
        type            cyclic;
    }
}


// ************************************************************************* //
