/*--------------------------------*- C++ -*----------------------------------*\
| =========                 |                                                 |
| \\      /  F ield         | OpenFOAM: The Open Source CFD Toolbox           |
|  \\    /   O peration     | Version:  3.0.x                                 |
|   \\  /    A nd           | Web:      www.OpenFOAM.org                      |
|    \\/     M anipulation  |                                                 |
\*---------------------------------------------------------------------------*/
FoamFile
{
    version     2.0;
    format      ascii;
    class       volScalarField;
    location    "75";
    object      sigmayy;
}
// * * * * * * * * * * * * * * * * * * * * * * * * * * * * * * * * * * * * * //

dimensions      [0 2 -2 0 0 0 0];

internalField   nonuniform List<scalar> 
960
(
2.0472759e-09
3.7528115e-09
-3.4523019e-09
-3.9550163e-09
4.6093217e-09
5.2480235e-09
-4.7628564e-09
-5.165391e-09
3.4330616e-09
3.9472266e-09
-3.597493e-09
-4.1136734e-09
1.4924946e-09
1.4307419e-09
-1.3539016e-09
-1.7207722e-09
-1.5684983e-09
-1.6189187e-09
1.4703699e-09
1.3405345e-09
-2.1731543e-09
-2.6098045e-09
2.1859195e-09
2.3812925e-09
-1.7350213e-09
-2.2742884e-09
1.7559983e-09
2.0820261e-09
-1.1636997e-09
-1.6589094e-09
1.1742793e-09
1.4975366e-09
-4.3460098e-10
-8.5512009e-10
4.4252822e-10
7.2755567e-10
2.7440592e-10
-4.8634855e-11
-2.6254018e-10
-4.6937077e-11
7.1777144e-10
5.0458398e-10
-6.9788895e-10
-5.7019575e-10
8.3018167e-10
7.1799134e-10
-8.0165334e-10
-7.5531069e-10
7.2129569e-10
6.8085217e-10
-6.8261858e-10
-6.9131085e-10
5.4848158e-10
5.4937501e-10
-4.9690325e-10
-5.3448027e-10
4.3792312e-10
4.593814e-10
-3.7194093e-10
-4.2066515e-10
4.5864699e-10
4.9076675e-10
-3.77311e-10
-4.2959743e-10
6.2388932e-10
6.6941126e-10
-5.266938e-10
-5.871424e-10
9.1858948e-10
9.8612992e-10
-8.0559272e-10
-8.8422385e-10
1.3163234e-09
1.4173227e-09
-1.1881883e-09
-1.297431e-09
1.7925273e-09
1.9435523e-09
-1.6504688e-09
-1.8075558e-09
2.3337897e-09
2.5497746e-09
-2.179489e-09
-2.3997784e-09
2.9313433e-09
3.2350501e-09
-2.7667366e-09
-3.0733306e-09
3.5847849e-09
4.0011527e-09
-3.4119817e-09
-3.8300976e-09
4.2950985e-09
4.8568931e-09
-4.1164575e-09
-4.6789721e-09
5.0621391e-09
5.8091182e-09
-4.8800724e-09
-5.6267869e-09
5.8802383e-09
6.865037e-09
-5.6970376e-09
-6.6806401e-09
6.7353479e-09
8.0225801e-09
-6.553213e-09
-7.8383743e-09
7.6059185e-09
9.2745289e-09
-7.4269696e-09
-9.0926961e-09
8.4563904e-09
1.0601825e-08
-8.2826493e-09
-1.0424429e-08
9.2410365e-09
1.1980272e-08
-9.0744145e-09
-1.1809245e-08
9.9104745e-09
1.3356322e-08
-9.7527765e-09
-1.3193472e-08
1.0377729e-08
1.4694092e-08
-1.0230645e-08
-1.4541108e-08
1.0579376e-08
1.5915039e-08
-1.0444485e-08
-1.5773502e-08
1.0425606e-08
1.6920178e-08
-1.0304372e-08
-1.6791557e-08
9.8257681e-09
1.7646149e-08
-9.7195246e-09
-1.7531805e-08
8.7040454e-09
1.7966725e-08
-8.6139774e-09
-1.7867889e-08
7.0052485e-09
1.7772772e-08
-6.9323605e-09
-1.769052e-08
4.7348881e-09
1.7042232e-08
-4.6799568e-09
-1.6977452e-08
1.5892754e-09
1.5412084e-08
-1.5527941e-09
-1.5365415e-08
-1.8388918e-09
1.2894549e-08
1.8567826e-09
-1.2866315e-08
-5.9294446e-09
9.662698e-09
5.9290359e-09
-9.6528385e-09
-1.0355223e-08
5.3603187e-09
1.0337304e-08
-5.3683198e-09
-1.4747096e-08
2.2144161e-10
1.4713005e-08
-2.4625859e-10
-1.9141664e-08
-5.9178541e-09
1.9093312e-08
5.8777925e-09
-2.2992085e-08
-1.2610799e-08
2.2931919e-08
1.2557588e-08
-2.5960198e-08
-1.967944e-08
2.5891082e-08
1.9615632e-08
-2.782668e-08
-2.6766367e-08
2.7751694e-08
2.6694755e-08
-2.7850764e-08
-3.2892196e-08
2.7772886e-08
3.2815566e-08
-2.7016793e-08
-3.8795247e-08
2.6938479e-08
3.8716011e-08
-2.395462e-08
-4.2513352e-08
2.3877304e-08
4.2433132e-08
-1.9841241e-08
-4.4742078e-08
1.97648e-08
4.4661271e-08
-1.2640378e-08
-4.3998571e-08
1.2562671e-08
4.3916017e-08
-7.0842613e-09
-4.001189e-08
7.0009124e-09
3.9924771e-08
-2.294177e-10
-3.1582243e-08
1.3421419e-10
3.1486515e-08
7.4868509e-09
-1.9991022e-08
-7.6006195e-09
1.9882569e-08
1.3412012e-08
-7.9557733e-09
-1.3550669e-08
7.8322126e-09
1.5999575e-08
5.7342286e-09
-1.6169763e-08
-5.8723044e-09
1.6815728e-08
1.7833178e-08
-1.7012054e-08
-1.7967264e-08
1.5707064e-08
2.1848e-08
-1.5766398e-08
-2.1951208e-08
9.1005214e-09
1.6225381e-08
-8.9431701e-09
-1.6298563e-08
3.3024048e-09
3.6925147e-09
-3.4428969e-09
-3.8212632e-09
4.2666332e-09
4.868243e-09
-4.3609146e-09
-4.9465858e-09
3.1991065e-09
3.7865792e-09
-3.3670747e-09
-3.9439638e-09
1.0214603e-09
1.37817e-09
-1.2054818e-09
-1.5790551e-09
-1.7454908e-09
-1.5978084e-09
1.5362713e-09
1.4084739e-09
-2.353748e-09
-2.5296916e-09
2.155112e-09
2.339355e-09
-1.9070946e-09
-2.209451e-09
1.721592e-09
2.0225461e-09
-1.3141311e-09
-1.6254187e-09
1.1536586e-09
1.4535547e-09
-5.5148666e-10
-8.3894205e-10
4.1991796e-10
6.9210528e-10
1.8520024e-10
-4.1641311e-11
-2.8713427e-10
-7.659335e-11
6.473474e-10
5.041946e-10
-7.1909515e-10
-5.9260035e-10
7.7464316e-10
7.1145219e-10
-8.1715646e-10
-7.6999215e-10
6.7543714e-10
6.6992224e-10
-6.9070451e-10
-6.9913402e-10
5.1178986e-10
5.3766064e-10
-5.0172194e-10
-5.3851381e-10
4.1087873e-10
4.4959119e-10
-3.77142e-10
-4.2335603e-10
4.374158e-10
4.8465227e-10
-3.81488e-10
-4.3283105e-10
6.079951e-10
6.6582748e-10
-5.3131248e-10
-5.9012535e-10
9.0666823e-10
9.8582164e-10
-8.1075671e-10
-8.881362e-10
1.3062312e-09
1.4187595e-09
-1.1927958e-09
-1.3011751e-09
1.7846631e-09
1.9475179e-09
-1.655626e-09
-1.8122885e-09
2.3254992e-09
2.5560946e-09
-2.182971e-09
-2.4056045e-09
2.923501e-09
3.2425737e-09
-2.7698209e-09
-3.0793011e-09
3.5772874e-09
4.0099379e-09
-3.4148973e-09
-3.8364075e-09
4.2868043e-09
4.8671113e-09
-4.1180223e-09
-4.6858152e-09
5.0541419e-09
5.8209413e-09
-4.8812786e-09
-5.6343436e-09
5.8702854e-09
6.8784857e-09
-5.6956954e-09
-6.6890639e-09
6.7244958e-09
8.0376119e-09
-6.5504469e-09
-7.847795e-09
7.5929971e-09
9.2899861e-09
-7.42163e-09
-9.1021142e-09
8.4413215e-09
1.0616464e-08
-8.2746449e-09
-1.0432818e-08
9.2259425e-09
1.1998268e-08
-9.0658283e-09
-1.1821087e-08
9.8841564e-09
1.3375052e-08
-9.7323281e-09
-1.3206538e-08
1.0351177e-08
1.4701916e-08
-1.0209207e-08
-1.4544225e-08
1.0541404e-08
1.5922367e-08
-1.0410715e-08
-1.5777601e-08
1.0387251e-08
1.6926187e-08
-1.0269109e-08
-1.6796369e-08
9.7759288e-09
1.7638799e-08
-9.6714338e-09
-1.7525835e-08
8.6538954e-09
1.7956063e-08
-8.5639676e-09
-1.7861692e-08
6.9438799e-09
1.7746582e-08
-6.8692461e-09
-1.76723e-08
4.6182429e-09
1.6932785e-08
-4.559406e-09
-1.6879762e-08
1.6952364e-09
1.5295918e-08
-1.652437e-09
-1.5264886e-08
-1.9534716e-09
1.2881567e-08
1.9802935e-09
-1.287272e-08
-6.041801e-09
9.5300959e-09
6.0530538e-09
-9.5429714e-09
-1.0353395e-08
5.3293646e-09
1.0349873e-08
-5.3627495e-09
-1.496286e-08
6.9906308e-11
1.4945761e-08
-1.2179715e-10
-1.9241086e-08
-5.9678966e-09
1.9212e-08
5.9003223e-09
-2.3085233e-08
-1.2669587e-08
2.3046072e-08
1.2589872e-08
-2.6046553e-08
-1.9745601e-08
2.5999417e-08
1.9657817e-08
-2.7795377e-08
-2.6837724e-08
2.7742325e-08
2.6746197e-08
-2.8923244e-08
-3.407529e-08
2.8866e-08
3.398417e-08
-2.6975904e-08
-3.8867069e-08
2.6915459e-08
3.8779805e-08
-2.3913069e-08
-4.2578754e-08
2.3849211e-08
4.2497521e-08
-1.9803314e-08
-4.4795684e-08
1.9734244e-08
4.4720835e-08
-1.3720812e-08
-4.4034663e-08
1.3642881e-08
4.3964297e-08
-7.0694787e-09
-4.0024954e-08
6.9772667e-09
3.9954844e-08
8.7558936e-10
-3.1567689e-08
-9.8838587e-10
3.1491898e-08
6.3501568e-09
-2.1055749e-08
-6.4887134e-09
2.0968185e-08
1.2252198e-08
-6.7732912e-09
-1.2417926e-08
6.670049e-09
1.5927678e-08
5.8188837e-09
-1.6116134e-08
-5.9351509e-09
1.7839166e-08
1.7890847e-08
-1.8015616e-08
-1.8003246e-08
1.454592e-08
2.1892484e-08
-1.4622259e-08
-2.1985887e-08
9.1194108e-09
1.6287874e-08
-9.092392e-09
-1.6388133e-08
3.5829733e-09
3.8025214e-09
-3.5502433e-09
-3.948786e-09
4.3604649e-09
5.1386497e-09
-4.7029781e-09
-5.2468476e-09
3.1642924e-09
3.9179745e-09
-3.5320021e-09
-4.1174082e-09
1.0255767e-09
1.4553319e-09
-1.3199225e-09
-1.6942253e-09
-1.7789445e-09
-1.5789253e-09
1.4924045e-09
1.3816652e-09
-2.4536744e-09
-2.5876996e-09
2.202375e-09
2.4100171e-09
-1.9756642e-09
-2.2659194e-09
1.7642521e-09
2.103761e-09
-1.3441186e-09
-1.6538862e-09
1.1733119e-09
1.5106026e-09
-5.63814e-10
-8.5367808e-10
4.3391453e-10
7.335109e-10
1.8162807e-10
-5.2009313e-11
-2.7484853e-10
-4.4542838e-11
6.4983001e-10
4.9964083e-10
-7.1149419e-10
-5.7253929e-10
7.8128482e-10
7.1138471e-10
-8.1570463e-10
-7.6011927e-10
6.8488871e-10
6.723864e-10
-6.9472056e-10
-6.9637072e-10
5.2145752e-10
5.4190187e-10
-5.0814824e-10
-5.4116016e-10
4.1802866e-10
4.5226321e-10
-3.8241704e-10
-4.2723044e-10
4.4335535e-10
4.8431045e-10
-3.8604893e-10
-4.3565427e-10
6.1215871e-10
6.6377231e-10
-5.3387274e-10
-5.9248489e-10
9.0962422e-10
9.8134591e-10
-8.1141117e-10
-8.8878208e-10
1.3083922e-09
1.4133549e-09
-1.1917369e-09
-1.3012235e-09
1.787359e-09
1.9403199e-09
-1.6541563e-09
-1.8106518e-09
2.3298887e-09
2.5471793e-09
-2.1823529e-09
-2.4022685e-09
2.9284061e-09
3.2329918e-09
-2.7689097e-09
-3.0753107e-09
3.5825787e-09
3.9995404e-09
-3.4136584e-09
-3.8316616e-09
4.2934435e-09
4.8556419e-09
-4.1178072e-09
-4.6802017e-09
5.060897e-09
5.8081414e-09
-4.8811456e-09
-5.6277499e-09
5.8793058e-09
6.8642635e-09
-5.6978603e-09
-6.6813897e-09
6.7346478e-09
8.0219711e-09
-6.5538396e-09
-7.8389537e-09
7.6053929e-09
9.2740571e-09
-7.4274444e-09
-9.0931423e-09
8.4559962e-09
1.0601464e-08
-8.2830079e-09
-1.0424772e-08
9.2407409e-09
1.1979997e-08
-9.0746872e-09
-1.1809506e-08
9.9102522e-09
1.3356114e-08
-9.7529826e-09
-1.3193671e-08
1.0377561e-08
1.4693934e-08
-1.0230801e-08
-1.4541259e-08
1.0579249e-08
1.591492e-08
-1.0444603e-08
-1.5773617e-08
1.0425511e-08
1.6920087e-08
-1.0304461e-08
-1.6791645e-08
9.8256963e-09
1.764608e-08
-9.7195909e-09
-1.753187e-08
8.7039909e-09
1.7966674e-08
-8.6140276e-09
-1.7867939e-08
7.0052083e-09
1.7772732e-08
-6.9323993e-09
-1.7690559e-08
4.7348577e-09
1.7042202e-08
-4.6799859e-09
-1.697748e-08
1.5892523e-09
1.5412063e-08
-1.552816e-09
-1.5365436e-08
-1.8389089e-09
1.2894532e-08
1.8567667e-09
-1.286633e-08
-5.9294579e-09
9.6626851e-09
5.9290246e-09
-9.6528504e-09
-1.0355233e-08
5.3603102e-09
1.0337294e-08
-5.3683283e-09
-1.4747103e-08
2.214284e-10
1.4712997e-08
-2.462647e-10
-1.9141669e-08
-5.9178598e-09
1.9093306e-08
5.8777868e-09
-2.299209e-08
-1.2610796e-08
2.2931915e-08
1.2557585e-08
-2.5960201e-08
-1.9679443e-08
2.5891079e-08
1.9615629e-08
-2.7826682e-08
-2.676637e-08
2.7751692e-08
2.6694752e-08
-2.7850765e-08
-3.2892199e-08
2.7772884e-08
3.2815564e-08
-2.7016793e-08
-3.8795247e-08
2.6938478e-08
3.871601e-08
-2.3954621e-08
-4.2513352e-08
2.3877303e-08
4.243313e-08
-1.9841243e-08
-4.4742079e-08
1.97648e-08
4.466127e-08
-1.2640378e-08
-4.3998572e-08
1.2562671e-08
4.3916017e-08
-7.0842614e-09
-4.0011891e-08
7.0009123e-09
3.9924771e-08
-2.2941865e-10
-3.1582244e-08
1.3421412e-10
3.1486516e-08
7.4868517e-09
-1.9991023e-08
-7.6006205e-09
1.9882569e-08
1.3412012e-08
-7.9557734e-09
-1.3550669e-08
7.8322117e-09
1.5999574e-08
5.7342277e-09
-1.6169763e-08
-5.8723053e-09
1.6815728e-08
1.7833178e-08
-1.7012055e-08
-1.7967264e-08
1.5707064e-08
2.1848e-08
-1.5766398e-08
-2.1951208e-08
9.1005215e-09
1.6225381e-08
-8.9431703e-09
-1.6298563e-08
3.3375461e-09
3.6919536e-09
-3.4402814e-09
-3.8303574e-09
4.270143e-09
4.8705069e-09
-4.3514943e-09
-4.9470879e-09
3.1887982e-09
3.7837126e-09
-3.3645853e-09
-3.9434751e-09
1.0133079e-09
1.3779678e-09
-1.2022792e-09
-1.5737549e-09
-1.7519078e-09
-1.5934757e-09
1.5378927e-09
1.4168461e-09
-2.3585306e-09
-2.5227372e-09
2.1565949e-09
2.3478894e-09
-1.9116171e-09
-2.2033803e-09
1.7233815e-09
2.0322943e-09
-1.3164393e-09
-1.6184999e-09
1.1541618e-09
1.4618071e-09
-5.5123949e-10
-8.3266008e-10
4.1982826e-10
6.9970332e-10
1.8611856e-10
-3.577835e-11
-2.8577829e-10
-6.979541e-11
6.4892968e-10
5.096192e-10
-7.1660486e-10
-5.8664348e-10
7.7665459e-10
7.162877e-10
-8.1443425e-10
-7.6487332e-10
6.7743978e-10
6.740677e-10
-6.8818238e-10
-6.9482834e-10
5.1365835e-10
5.4113111e-10
-4.995234e-10
-5.3498405e-10
4.1253011e-10
4.5244514e-10
-3.7526701e-10
-4.2052092e-10
4.3882035e-10
4.8696079e-10
-3.7991795e-10
-4.3057859e-10
6.0915715e-10
6.6766768e-10
-5.3002171e-10
-5.8835261e-10
9.0760976e-10
9.8726923e-10
-8.0971143e-10
-8.8675298e-10
1.306982e-09
1.4198854e-09
-1.1919606e-09
-1.3001031e-09
1.7852552e-09
1.9483879e-09
-1.6549669e-09
-1.8114611e-09
2.325962e-09
2.5567629e-09
-2.1824723e-09
-2.4049676e-09
2.9238603e-09
3.2430841e-09
-2.7694532e-09
-3.078811e-09
3.5775646e-09
4.0103269e-09
-3.4146029e-09
-3.8360288e-09
4.2870171e-09
4.8674067e-09
-4.117778e-09
-4.6855212e-09
5.0543044e-09
5.8211676e-09
-4.8810867e-09
-5.6341151e-09
5.8704082e-09
6.8786619e-09
-5.6955484e-09
-6.6888872e-09
6.7245895e-09
8.0377481e-09
-6.5503371e-09
-7.8476569e-09
7.5930678e-09
9.2900914e-09
-7.4215479e-09
-9.1020058e-09
8.4413733e-09
1.0616545e-08
-8.2745842e-09
-1.0432734e-08
9.225982e-09
1.199833e-08
-9.0657832e-09
-1.182102e-08
9.8841862e-09
1.33751e-08
-9.732293e-09
-1.3206486e-08
1.0351198e-08
1.4701952e-08
-1.0209182e-08
-1.4544185e-08
1.0541419e-08
1.5922396e-08
-1.0410697e-08
-1.577757e-08
1.0387263e-08
1.6926209e-08
-1.0269095e-08
-1.6796344e-08
9.7759377e-09
1.7638816e-08
-9.6714225e-09
-1.7525815e-08
8.6539011e-09
1.7956077e-08
-8.5639605e-09
-1.7861676e-08
6.9438843e-09
1.7746592e-08
-6.8692404e-09
-1.7672288e-08
4.6182462e-09
1.6932793e-08
-4.5594016e-09
-1.6879752e-08
1.6952386e-09
1.5295924e-08
-1.6524346e-09
-1.526488e-08
-1.9534696e-09
1.2881572e-08
1.9802957e-09
-1.2872715e-08
-6.0417999e-09
9.5300996e-09
6.053055e-09
-9.5429666e-09
-1.0353394e-08
5.3293699e-09
1.0349874e-08
-5.3627433e-09
-1.4962859e-08
6.9910455e-11
1.4945763e-08
-1.2179464e-10
-1.9241087e-08
-5.9678979e-09
1.9212001e-08
5.9003211e-09
-2.3085232e-08
-1.2669588e-08
2.3046072e-08
1.2589873e-08
-2.6046552e-08
-1.97456e-08
2.5999417e-08
1.9657818e-08
-2.7795377e-08
-2.6837723e-08
2.7742325e-08
2.6746198e-08
-2.8923244e-08
-3.407529e-08
2.8866e-08
3.3984171e-08
-2.6975904e-08
-3.8867068e-08
2.6915459e-08
3.8779805e-08
-2.3913069e-08
-4.2578754e-08
2.3849211e-08
4.2497521e-08
-1.9803314e-08
-4.4795684e-08
1.9734244e-08
4.4720836e-08
-1.3720812e-08
-4.4034662e-08
1.3642881e-08
4.3964297e-08
-7.0694787e-09
-4.0024955e-08
6.9772667e-09
3.9954844e-08
8.7558938e-10
-3.1567688e-08
-9.8838587e-10
3.1491898e-08
6.3501568e-09
-2.1055748e-08
-6.4887134e-09
2.0968185e-08
1.2252198e-08
-6.7732912e-09
-1.2417926e-08
6.670049e-09
1.5927678e-08
5.8188837e-09
-1.6116134e-08
-5.9351508e-09
1.7839166e-08
1.7890847e-08
-1.8015616e-08
-1.8003246e-08
1.4545919e-08
2.1892484e-08
-1.4622259e-08
-2.1985887e-08
9.1194109e-09
1.6287874e-08
-9.092392e-09
-1.6388133e-08
)
;

boundaryField
{
    movingWall
    {
        type            calculated;
        value           nonuniform List<scalar> 
16
(
7.9001093e-09
7.9510357e-09
7.9001096e-09
7.951036e-09
1.5202007e-08
1.5269576e-08
1.5202007e-08
1.5269576e-08
-7.6716521e-09
-7.8993357e-09
-7.6716524e-09
-7.8993358e-09
-1.5265334e-08
-1.5387173e-08
-1.5265334e-08
-1.5387174e-08
)
;
    }
    CPLReceiveMD
    {
        type            calculated;
        value           nonuniform List<scalar> 
16
(
3.7521767e-10
3.3097862e-09
3.7769521e-09
3.3568976e-09
3.5885633e-09
3.7359215e-09
3.8067764e-09
3.7295359e-09
-3.517598e-09
-3.588345e-09
-3.6345175e-09
-3.5954345e-09
-4.1785446e-09
-3.9414353e-09
-4.0510543e-09
-3.9565889e-09
)
;
    }
    streamwiseIn
    {
        type            cyclic;
    }
    streamwiseOut
    {
        type            cyclic;
    }
    front
    {
        type            cyclic;
    }
    back
    {
        type            cyclic;
    }
}


// ************************************************************************* //
