/*--------------------------------*- C++ -*----------------------------------*\
| =========                 |                                                 |
| \\      /  F ield         | OpenFOAM: The Open Source CFD Toolbox           |
|  \\    /   O peration     | Version:  3.0.x                                 |
|   \\  /    A nd           | Web:      www.OpenFOAM.org                      |
|    \\/     M anipulation  |                                                 |
\*---------------------------------------------------------------------------*/
FoamFile
{
    version     2.0;
    format      ascii;
    class       volScalarField;
    location    "75";
    object      sigmaxx;
}
// * * * * * * * * * * * * * * * * * * * * * * * * * * * * * * * * * * * * * //

dimensions      [0 2 -2 0 0 0 0];

internalField   nonuniform List<scalar> 
960
(
-2.647055e-09
-3.6854407e-09
3.2155312e-09
3.6937018e-09
-5.4034412e-09
-6.062556e-09
5.5863397e-09
5.9977502e-09
-3.6451335e-09
-4.2844154e-09
3.837233e-09
4.3628636e-09
-1.7692607e-09
-1.9545262e-09
1.8109211e-09
2.107864e-09
1.4613203e-09
1.3922597e-09
-1.3108397e-09
-1.2353031e-09
2.0104945e-09
2.3016559e-09
-1.9315906e-09
-2.166459e-09
1.6424803e-09
2.0366105e-09
-1.5860362e-09
-1.9205256e-09
1.1098031e-09
1.4876755e-09
-1.0648902e-09
-1.3898023e-09
3.9156844e-10
7.2300278e-10
-3.5863553e-10
-6.4495655e-10
-3.1015102e-10
-5.4386511e-11
3.3134567e-10
1.139927e-10
-7.4518073e-10
-5.8168655e-10
7.5540011e-10
6.243917e-10
-8.481993e-10
-7.7242097e-10
8.492272e-10
7.994591e-10
-7.3128365e-10
-7.1624128e-10
7.2372687e-10
7.2858179e-10
-5.484191e-10
-5.6786363e-10
5.317922e-10
5.6642198e-10
-4.2618292e-10
-4.6179697e-10
4.0034379e-10
4.4745945e-10
-4.358487e-10
-4.7794141e-10
4.0076038e-10
4.5150059e-10
-5.8911575e-10
-6.4255343e-10
5.4485634e-10
6.0479392e-10
-8.7185233e-10
-9.4604832e-10
8.1871138e-10
8.9780935e-10
-1.2575701e-09
-1.3633136e-09
1.196088e-09
1.3055257e-09
-1.7207008e-09
-1.876313e-09
1.6516536e-09
1.810014e-09
-2.2495675e-09
-2.4675441e-09
2.1739312e-09
2.3938731e-09
-2.8331468e-09
-3.1382078e-09
2.751997e-09
3.0583778e-09
-3.4712512e-09
-3.887533e-09
3.3857247e-09
3.8028e-09
-4.1643837e-09
-4.7249243e-09
4.0757233e-09
4.6365739e-09
-4.9124809e-09
-5.655475e-09
4.8219444e-09
5.5647754e-09
-5.7093866e-09
-6.6877866e-09
5.6181599e-09
6.5959426e-09
-6.5397603e-09
-7.8174989e-09
6.4489739e-09
7.7256645e-09
-7.3828454e-09
-9.0376763e-09
7.2935822e-09
8.9469629e-09
-8.2008928e-09
-1.0327142e-08
8.1141813e-09
1.0238597e-08
-8.9477408e-09
-1.1665477e-08
8.8645495e-09
1.1580079e-08
-9.5820563e-09
-1.2985966e-08
9.5032975e-09
1.2904628e-08
-9.9987723e-09
-1.4270668e-08
9.9252985e-09
1.4194241e-08
-1.0149535e-08
-1.5430382e-08
1.008214e-08
1.5359662e-08
-9.9395092e-09
-1.6349042e-08
9.8789306e-09
1.6284769e-08
-9.2734403e-09
-1.6994971e-08
9.2203476e-09
1.6937826e-08
-8.0801334e-09
-1.7221836e-08
8.0351212e-09
1.7172438e-08
-6.3153507e-09
-1.6925141e-08
6.2789231e-09
1.6884031e-08
-4.0317779e-09
-1.6177075e-08
4.0043245e-09
1.6144696e-08
-6.2819894e-10
-1.4363398e-08
6.0996753e-10
1.4340072e-08
2.7502236e-09
-1.1606725e-08
-2.7591621e-09
1.1592615e-08
6.9591413e-09
-8.3264609e-09
-6.9589318e-09
8.3215359e-09
1.1502106e-08
-3.8451957e-09
-1.1493143e-08
3.8491997e-09
1.5861684e-08
1.3871867e-09
-1.5844636e-08
-1.3747756e-09
2.0389044e-08
7.7855145e-09
-2.0364866e-08
-7.7654817e-09
2.4311463e-08
1.4627101e-08
-2.4281378e-08
-1.4600494e-08
2.7293425e-08
2.182297e-08
-2.7258866e-08
-2.1791064e-08
2.922527e-08
2.9027982e-08
-2.9187776e-08
-2.8992174e-08
2.8904444e-08
3.475384e-08
-2.8865504e-08
-3.4715524e-08
2.8487458e-08
4.1034045e-08
-2.8448301e-08
-4.0994427e-08
2.5292031e-08
4.4557438e-08
-2.5253373e-08
-4.4517328e-08
2.1571002e-08
4.7336141e-08
-2.1532781e-08
-4.7295738e-08
1.297755e-08
4.6964388e-08
-1.2938696e-08
-4.6923111e-08
8.5351512e-09
4.3306707e-08
-8.4934766e-09
-4.3263148e-08
1.7790491e-09
3.4098863e-08
-1.7314472e-09
-3.4050999e-08
-7.0721057e-09
2.1645892e-08
7.1289901e-09
-2.1591665e-08
-1.3363367e-08
1.0635247e-08
1.3432695e-08
-1.0573467e-08
-1.4657148e-08
-2.8671143e-09
1.4742242e-08
2.9361522e-09
-1.5065225e-08
-1.557395e-08
1.5163388e-08
1.5640993e-08
-1.6175233e-08
-2.0910041e-08
1.62049e-08
2.0961645e-08
-7.878941e-09
-1.3105711e-08
7.8002654e-09
1.3142302e-08
-3.1994378e-09
-3.5632846e-09
3.2677259e-09
3.6215321e-09
-4.9668583e-09
-5.6151883e-09
5.0104831e-09
5.6424472e-09
-3.4431186e-09
-4.0831086e-09
3.5233269e-09
4.1486902e-09
-1.410922e-09
-1.7968463e-09
1.4990026e-09
1.8848528e-09
1.6166951e-09
1.4625759e-09
-1.5161239e-09
-1.3790729e-09
2.1004243e-09
2.2686769e-09
-2.0051456e-09
-2.1832732e-09
1.7223147e-09
1.9977154e-09
-1.6335297e-09
-1.9125987e-09
1.177955e-09
1.4616666e-09
-1.1014503e-09
-1.3827331e-09
4.4063162e-10
7.045154e-10
-3.7821975e-10
-6.3687974e-10
-2.7371144e-10
-6.8091036e-11
3.2174744e-10
1.2250088e-10
-7.1594778e-10
-5.9020397e-10
7.4936161e-10
6.306259e-10
-8.2433662e-10
-7.7499942e-10
8.4356719e-10
8.0126489e-10
-7.063182e-10
-7.1230616e-10
7.1230789e-10
7.2454538e-10
-5.2614438e-10
-5.6103341e-10
5.1979309e-10
5.5960812e-10
-4.1064967e-10
-4.5520861e-10
3.9273737e-10
4.4064983e-10
-4.2214695e-10
-4.7423741e-10
3.9336338e-10
4.4720967e-10
-5.7891673e-10
-6.3959002e-10
5.3993684e-10
6.0087533e-10
-8.6466023e-10
-9.4594783e-10
8.1621012e-10
8.9643826e-10
-1.2507934e-09
-1.3637239e-09
1.1936949e-09
1.3044168e-09
-1.7163171e-09
-1.8793584e-09
1.6515064e-09
1.8113459e-09
-2.2430106e-09
-2.473196e-09
2.1715228e-09
2.3976432e-09
-2.8265881e-09
-3.1442755e-09
2.7495773e-09
3.0624006e-09
-3.4646934e-09
-3.8940855e-09
3.3833695e-09
3.8071352e-09
-4.1556337e-09
-4.7320793e-09
4.0711462e-09
4.6412874e-09
-4.9037817e-09
-5.6633432e-09
4.817278e-09
5.5699325e-09
-5.6963075e-09
-6.6963982e-09
5.608959e-09
6.6016003e-09
-6.5245123e-09
-7.8268483e-09
6.4374482e-09
7.7318723e-09
-7.3631929e-09
-9.0455332e-09
7.2774799e-09
8.9515447e-09
-8.1768071e-09
-1.033123e-08
8.0934471e-09
1.0239366e-08
-8.9236194e-09
-1.1674549e-08
8.8435464e-09
1.1585926e-08
-9.5356622e-09
-1.2995387e-08
9.4597364e-09
1.2911105e-08
-9.9522485e-09
-1.4257978e-08
9.8812551e-09
1.4179114e-08
-1.0080648e-08
-1.5417434e-08
1.0015297e-08
1.5345036e-08
-9.870423e-09
-1.6335428e-08
9.8113477e-09
1.6270507e-08
-9.1819634e-09
-1.6958027e-08
9.1297126e-09
1.6901536e-08
-7.988497e-09
-1.7183232e-08
7.9435308e-09
1.7136039e-08
-6.2014585e-09
-1.6862126e-08
6.1641399e-09
1.682498e-08
-3.8070281e-09
-1.5955925e-08
3.7776084e-09
1.5929409e-08
-8.4761854e-10
-1.4138887e-08
8.2621799e-10
1.4123368e-08
2.9739438e-09
-1.1600239e-08
-2.9873553e-09
1.1595813e-08
7.1817507e-09
-8.093729e-09
-7.1873775e-09
8.100165e-09
1.150119e-08
-3.829721e-09
-1.1499429e-08
3.8464121e-09
1.6302433e-08
1.6293865e-09
-1.6293884e-08
-1.6034421e-09
2.0605188e-08
7.8105344e-09
-2.0590645e-08
-7.776748e-09
2.4524469e-08
1.4656494e-08
-2.4504889e-08
-1.4616637e-08
2.7503036e-08
2.1856049e-08
-2.7479468e-08
-2.1812158e-08
2.9209618e-08
2.9063659e-08
-2.9183092e-08
-2.9017896e-08
3.1105024e-08
3.7009727e-08
-3.1076402e-08
-3.6964167e-08
2.8467014e-08
4.1069956e-08
-2.8436791e-08
-4.1026325e-08
2.5271256e-08
4.4590139e-08
-2.5239327e-08
-4.4549523e-08
2.1552038e-08
4.7362944e-08
-2.1517503e-08
-4.732552e-08
1.5182107e-08
4.6982434e-08
-1.5143141e-08
-4.6947251e-08
8.5277598e-09
4.3313239e-08
-8.4816538e-09
-4.3278184e-08
-4.3779468e-10
3.4091586e-08
4.9419295e-10
-3.4053691e-08
-4.8394186e-09
2.3842596e-08
4.9086969e-09
-2.3798814e-08
-1.111912e-08
8.3796661e-09
1.1201983e-08
-8.3280449e-09
-1.4621199e-08
-2.9094419e-09
1.4715428e-08
2.9675754e-09
-1.7241284e-08
-1.5602784e-08
1.7329509e-08
1.5658984e-08
-1.393032e-08
-2.0932283e-08
1.396849e-08
2.0978985e-08
-7.8883857e-09
-1.3136957e-08
7.8748763e-09
1.3187087e-08
-3.2803857e-09
-3.6206268e-09
3.3980574e-09
3.7866005e-09
-5.3859725e-09
-5.982869e-09
5.4510981e-09
6.0604575e-09
-3.6213305e-09
-4.2650648e-09
3.6953014e-09
4.3695568e-09
-1.6467598e-09
-1.9750349e-09
1.6829758e-09
2.0861589e-09
1.4639849e-09
1.355057e-09
-1.4221313e-09
-1.2741915e-09
2.0654561e-09
2.2676749e-09
-2.0250929e-09
-2.1997746e-09
1.6974539e-09
2.0143373e-09
-1.6586804e-09
-1.9532119e-09
1.1510319e-09
1.4685719e-09
-1.1158312e-09
-1.4141169e-09
4.1887065e-10
7.0725799e-10
-3.9081746e-10
-6.6143843e-10
-2.9067816e-10
-6.338976e-11
3.1016088e-10
9.984561e-11
-7.3084591e-10
-5.894906e-10
7.4151737e-10
6.1604056e-10
-8.3963422e-10
-7.7776581e-10
8.4155207e-10
7.9375463e-10
-7.2409029e-10
-7.1765278e-10
7.1722445e-10
7.2253376e-10
-5.441044e-10
-5.702799e-10
5.2828749e-10
5.6390333e-10
-4.2453537e-10
-4.6336926e-10
3.9957759e-10
4.4583227e-10
-4.3456618e-10
-4.7894111e-10
4.003333e-10
4.5046918e-10
-5.8812656e-10
-6.4317289e-10
5.4464521e-10
6.0415427e-10
-8.7109591e-10
-9.4641931e-10
8.1863196e-10
8.9742333e-10
-1.2547769e-09
-1.3635253e-09
1.1938638e-09
1.3053016e-09
-1.7202678e-09
-1.8764252e-09
1.6516844e-09
1.8098919e-09
-2.2492426e-09
-2.4675966e-09
2.1739606e-09
2.3938141e-09
-2.8329031e-09
-3.138227e-09
2.7520013e-09
3.0583567e-09
-3.4710691e-09
-3.887537e-09
3.3857337e-09
3.802803e-09
-4.1642478e-09
-4.724922e-09
4.0757695e-09
4.6365918e-09
-4.9123787e-09
-5.6554634e-09
4.8220061e-09
5.5648015e-09
-5.7093094e-09
-6.6877622e-09
5.618213e-09
6.595971e-09
-6.5397022e-09
-7.8174686e-09
6.4490171e-09
7.7256914e-09
-7.3828016e-09
-9.0376474e-09
7.2936161e-09
8.946987e-09
-8.2008603e-09
-1.0327117e-08
8.1142072e-09
1.0238618e-08
-8.9477167e-09
-1.1665457e-08
8.8645701e-09
1.1580096e-08
-9.5820382e-09
-1.298595e-08
9.5033133e-09
1.2904642e-08
-9.9987587e-09
-1.4270655e-08
9.9253105e-09
1.4194253e-08
-1.0149524e-08
-1.5430372e-08
1.008215e-08
1.5359672e-08
-9.9395013e-09
-1.6349034e-08
9.8789378e-09
1.6284777e-08
-9.2734342e-09
-1.6994964e-08
9.2203526e-09
1.6937832e-08
-8.0801286e-09
-1.7221831e-08
8.0351252e-09
1.7172443e-08
-6.3153474e-09
-1.6925137e-08
6.2789265e-09
1.6884035e-08
-4.0317753e-09
-1.6177072e-08
4.0043271e-09
1.6144699e-08
-6.2819689e-10
-1.4363397e-08
6.0996947e-10
1.4340075e-08
2.7502251e-09
-1.1606724e-08
-2.7591609e-09
1.1592617e-08
6.9591426e-09
-8.3264593e-09
-6.9589312e-09
8.3215372e-09
1.1502107e-08
-3.845195e-09
-1.1493142e-08
3.8492005e-09
1.5861685e-08
1.3871906e-09
-1.5844635e-08
-1.3747751e-09
2.0389044e-08
7.7855154e-09
-2.0364865e-08
-7.7654808e-09
2.4311463e-08
1.4627098e-08
-2.4281378e-08
-1.4600494e-08
2.7293425e-08
2.182297e-08
-2.7258866e-08
-2.1791064e-08
2.922527e-08
2.9027982e-08
-2.9187776e-08
-2.8992174e-08
2.8904444e-08
3.4753841e-08
-2.8865504e-08
-3.4715524e-08
2.8487458e-08
4.1034045e-08
-2.84483e-08
-4.0994427e-08
2.5292031e-08
4.4557438e-08
-2.5253373e-08
-4.4517327e-08
2.1571002e-08
4.7336142e-08
-2.1532781e-08
-4.7295738e-08
1.2977549e-08
4.6964388e-08
-1.2938696e-08
-4.6923111e-08
8.5351511e-09
4.3306707e-08
-8.4934767e-09
-4.3263148e-08
1.7790494e-09
3.4098863e-08
-1.7314473e-09
-3.4051e-08
-7.0721062e-09
2.1645892e-08
7.1289905e-09
-2.1591666e-08
-1.3363367e-08
1.0635247e-08
1.3432695e-08
-1.0573466e-08
-1.4657147e-08
-2.8671139e-09
1.4742242e-08
2.9361526e-09
-1.5065225e-08
-1.557395e-08
1.5163388e-08
1.5640993e-08
-1.6175233e-08
-2.0910041e-08
1.62049e-08
2.0961645e-08
-7.8789411e-09
-1.3105711e-08
7.8002655e-09
1.3142302e-08
-3.2162103e-09
-3.5574903e-09
3.2695359e-09
3.6328189e-09
-4.963615e-09
-5.6053087e-09
5.0078065e-09
5.6555116e-09
-3.4356829e-09
-4.0692659e-09
3.5273523e-09
4.1622578e-09
-1.4022851e-09
-1.7831447e-09
1.500701e-09
1.8934742e-09
1.6249172e-09
1.47286e-09
-1.5138712e-09
-1.3733809e-09
2.1064612e-09
2.2747178e-09
-2.0014541e-09
-2.1775293e-09
1.7298845e-09
2.0045233e-09
-1.6318004e-09
-1.9106445e-09
1.1842002e-09
1.4651354e-09
-1.0993298e-09
-1.3797904e-09
4.4359949e-10
7.0714736e-10
-3.7452139e-10
-6.3488625e-10
-2.7144543e-10
-6.6290509e-11
3.2420631e-10
1.2378488e-10
-7.1443063e-10
-5.8909635e-10
7.5072827e-10
6.3138944e-10
-8.234265e-10
-7.7436928e-10
8.443424e-10
8.0166661e-10
-7.057586e-10
-7.1197056e-10
7.127739e-10
7.2471756e-10
-5.2582593e-10
-5.6088152e-10
5.2007579e-10
5.5965986e-10
-4.1048242e-10
-4.5516744e-10
3.9289481e-10
4.4064653e-10
-4.2207012e-10
-4.7425568e-10
3.934386e-10
4.4718171e-10
-5.7889165e-10
-6.3963474e-10
5.399625e-10
6.0084082e-10
-8.646628e-10
-9.4599865e-10
8.1620799e-10
8.9640737e-10
-1.2508094e-09
-1.36377e-09
1.1936795e-09
1.3043937e-09
-1.7163388e-09
-1.8793966e-09
1.6514868e-09
1.811331e-09
-2.2430336e-09
-2.4732252e-09
2.1715124e-09
2.3976353e-09
-2.8266103e-09
-3.1442959e-09
2.7495776e-09
3.0623979e-09
-3.4647136e-09
-3.894099e-09
3.3833617e-09
3.8071351e-09
-4.1556515e-09
-4.7320872e-09
4.0711285e-09
4.6412883e-09
-4.9037969e-09
-5.6633485e-09
4.8172601e-09
5.569934e-09
-5.6963199e-09
-6.696403e-09
5.6089435e-09
6.6016026e-09
-6.5245229e-09
-7.8268522e-09
6.4374364e-09
7.7318742e-09
-7.3632015e-09
-9.0455362e-09
7.2774709e-09
8.951546e-09
-8.1768134e-09
-1.0331232e-08
8.0934405e-09
1.0239367e-08
-8.9236248e-09
-1.167455e-08
8.8435413e-09
1.1585927e-08
-9.5356667e-09
-1.2995388e-08
9.4597318e-09
1.2911105e-08
-9.9522514e-09
-1.4257979e-08
9.8812518e-09
1.4179114e-08
-1.008065e-08
-1.5417435e-08
1.0015295e-08
1.5345037e-08
-9.8704253e-09
-1.6335428e-08
9.8113458e-09
1.6270507e-08
-9.1819651e-09
-1.6958027e-08
9.1297107e-09
1.6901535e-08
-7.9884979e-09
-1.7183232e-08
7.94353e-09
1.7136039e-08
-6.2014593e-09
-1.6862126e-08
6.164139e-09
1.682498e-08
-3.8070288e-09
-1.5955925e-08
3.7776076e-09
1.5929409e-08
-8.47619e-10
-1.4138887e-08
8.2621779e-10
1.4123368e-08
2.9739432e-09
-1.1600239e-08
-2.9873557e-09
1.1595813e-08
7.1817505e-09
-8.0937293e-09
-7.1873776e-09
8.1001646e-09
1.150119e-08
-3.8297224e-09
-1.1499429e-08
3.8464105e-09
1.6302432e-08
1.6293854e-09
-1.6293884e-08
-1.6034423e-09
2.0605188e-08
7.8105357e-09
-2.0590646e-08
-7.7767466e-09
2.4524469e-08
1.4656495e-08
-2.4504889e-08
-1.4616637e-08
2.7503035e-08
2.1856049e-08
-2.7479468e-08
-2.1812158e-08
2.9209618e-08
2.9063659e-08
-2.9183092e-08
-2.9017896e-08
3.1105024e-08
3.7009727e-08
-3.1076402e-08
-3.6964167e-08
2.8467014e-08
4.1069956e-08
-2.8436791e-08
-4.1026324e-08
2.5271256e-08
4.4590139e-08
-2.5239327e-08
-4.4549522e-08
2.1552038e-08
4.7362944e-08
-2.1517503e-08
-4.732552e-08
1.5182107e-08
4.6982433e-08
-1.5143141e-08
-4.6947251e-08
8.5277598e-09
4.331324e-08
-8.4816538e-09
-4.3278184e-08
-4.3779471e-10
3.4091586e-08
4.9419295e-10
-3.4053691e-08
-4.8394185e-09
2.3842595e-08
4.9086969e-09
-2.3798814e-08
-1.111912e-08
8.3796661e-09
1.1201983e-08
-8.3280449e-09
-1.46212e-08
-2.9094418e-09
1.4715428e-08
2.9675754e-09
-1.7241284e-08
-1.5602784e-08
1.7329509e-08
1.5658984e-08
-1.393032e-08
-2.0932283e-08
1.396849e-08
2.0978985e-08
-7.8883858e-09
-1.3136957e-08
7.8748763e-09
1.3187087e-08
)
;

boundaryField
{
    movingWall
    {
        type            calculated;
        value           nonuniform List<scalar> 
16
(
-7.2787349e-09
-7.3041981e-09
-7.2787351e-09
-7.3041983e-09
-1.2594024e-08
-1.2627808e-08
-1.2594024e-08
-1.2627808e-08
7.1645064e-09
7.2783482e-09
7.1645065e-09
7.2783482e-09
1.2625687e-08
1.2686607e-08
1.2625687e-08
1.2686607e-08
)
;
    }
    CPLReceiveMD
    {
        type            calculated;
        value           nonuniform List<scalar> 
16
(
-1.8110259e-09
-3.2031285e-09
-3.3773751e-09
-3.2258861e-09
-3.6033166e-09
-3.584988e-09
-3.6227543e-09
-3.5762814e-09
3.2481793e-09
3.34045e-09
3.4401946e-09
3.3471124e-09
3.805466e-09
3.6816182e-09
3.8377346e-09
3.6959346e-09
)
;
    }
    streamwiseIn
    {
        type            cyclic;
    }
    streamwiseOut
    {
        type            cyclic;
    }
    front
    {
        type            cyclic;
    }
    back
    {
        type            cyclic;
    }
}


// ************************************************************************* //
