/*--------------------------------*- C++ -*----------------------------------*\
| =========                 |                                                 |
| \\      /  F ield         | OpenFOAM: The Open Source CFD Toolbox           |
|  \\    /   O peration     | Version:  3.0.x                                 |
|   \\  /    A nd           | Web:      www.OpenFOAM.org                      |
|    \\/     M anipulation  |                                                 |
\*---------------------------------------------------------------------------*/
FoamFile
{
    version     2.0;
    format      ascii;
    class       volScalarField;
    location    "75";
    object      sigmazz;
}
// * * * * * * * * * * * * * * * * * * * * * * * * * * * * * * * * * * * * * //

dimensions      [0 2 -2 0 0 0 0];

internalField   nonuniform List<scalar> 
960
(
5.9977913e-10
-6.7370712e-11
2.3677063e-10
2.6131448e-10
7.9411951e-10
8.1453246e-10
-8.2348325e-10
-8.323592e-10
2.1207182e-10
3.3718876e-10
-2.3974008e-10
-2.4919015e-10
2.7676607e-10
5.2378425e-10
-4.5701943e-10
-3.8709187e-10
1.07178e-10
2.2665899e-10
-1.5953023e-10
-1.052314e-10
1.6265982e-10
3.081486e-10
-2.5432889e-10
-2.1483353e-10
9.2541e-11
2.3767786e-10
-1.6996208e-10
-1.6150051e-10
5.3896607e-11
1.7123386e-10
-1.0938911e-10
-1.0773425e-10
4.3032538e-11
1.321173e-10
-8.3892697e-11
-8.2599119e-11
3.5745105e-11
1.0302137e-10
-6.8805486e-11
-6.7055626e-11
2.7409289e-11
7.7102568e-11
-5.7511162e-11
-5.4195949e-11
1.8017631e-11
5.4429631e-11
-4.7573854e-11
-4.414841e-11
9.9879671e-12
3.5389104e-11
-4.1108292e-11
-3.7270946e-11
-6.2482061e-14
1.8488626e-11
-3.4888958e-11
-3.1941703e-11
-1.17402e-11
2.4155707e-12
-2.8402861e-11
-2.6794298e-11
-2.279829e-11
-1.2825337e-11
-2.3449382e-11
-2.1903157e-11
-3.4773573e-11
-2.6857832e-11
-1.8162547e-11
-1.7651518e-11
-4.6737146e-11
-4.0081596e-11
-1.3118663e-11
-1.35855e-11
-5.8753278e-11
-5.4009148e-11
-7.8996945e-12
-8.0947187e-12
-7.1826517e-11
-6.7239298e-11
-1.1847729e-12
-2.458179e-12
-8.4222236e-11
-8.2230532e-11
5.5577623e-12
5.905238e-12
-9.8196453e-11
-9.6842358e-11
1.4739545e-11
1.4952878e-11
-1.1353376e-10
-1.1361966e-10
2.6256993e-11
2.7297577e-11
-1.3071475e-10
-1.3196879e-10
4.0734144e-11
4.2398155e-11
-1.4965821e-10
-1.5364323e-10
5.8128034e-11
6.2011423e-11
-1.7085167e-10
-1.7725031e-10
7.8877653e-11
8.4697493e-11
-1.9558758e-10
-2.0508122e-10
1.0423916e-10
1.1270987e-10
-2.2307314e-10
-2.3685261e-10
1.3338735e-10
1.4573323e-10
-2.5549753e-10
-2.746832e-10
1.6846801e-10
1.8583221e-10
-2.9329572e-10
-3.1479468e-10
2.0986504e-10
2.2916564e-10
-3.2841813e-10
-3.7035628e-10
2.4947904e-10
2.8884405e-10
-3.7895625e-10
-4.234244e-10
3.0534663e-10
3.4686687e-10
-4.2984092e-10
-4.8465747e-10
3.6234428e-10
4.1383932e-10
-4.8609678e-10
-5.7113529e-10
4.2544119e-10
5.0678787e-10
-5.5232775e-10
-6.511786e-10
4.9917706e-10
5.9397861e-10
-6.2391199e-10
-7.4488929e-10
5.7885619e-10
6.9545057e-10
-6.8989784e-10
-8.4763087e-10
6.5343743e-10
8.0648965e-10
-7.0311022e-10
-8.6515713e-10
6.7563225e-10
8.3275552e-10
-9.6107645e-10
-1.0486858e-09
9.4282658e-10
1.0253426e-09
-9.113318e-10
-1.2878231e-09
9.0237949e-10
1.2736998e-09
-1.0296967e-09
-1.3362371e-09
1.0298959e-09
1.3313026e-09
-1.1468832e-09
-1.5151231e-09
1.1558388e-09
1.5191201e-09
-1.1145883e-09
-1.6086283e-09
1.1316309e-09
1.6210341e-09
-1.24738e-09
-1.8676604e-09
1.2715539e-09
1.8876892e-09
-1.3193772e-09
-2.0163021e-09
1.3494588e-09
2.0429058e-09
-1.333227e-09
-2.1435296e-09
1.3677838e-09
2.1754327e-09
-1.3985897e-09
-2.2616141e-09
1.4360819e-09
2.2974197e-09
-1.0536798e-09
-1.8616437e-09
1.0926182e-09
1.8999586e-09
-1.4706652e-09
-2.2387989e-09
1.5098215e-09
2.278416e-09
-1.3374114e-09
-2.0440861e-09
1.3760691e-09
2.0841962e-09
-1.7297607e-09
-2.5940635e-09
1.767981e-09
2.6344665e-09
-3.3717184e-10
-2.9658169e-09
3.7602492e-10
3.0070934e-09
-1.4508898e-09
-3.2948169e-09
1.4925642e-09
3.3383763e-09
-1.5496314e-09
-2.5166201e-09
1.597233e-09
2.5644839e-09
-4.1474516e-10
-1.6548699e-09
4.7162945e-10
1.7090967e-09
-4.8645682e-11
-2.6794739e-09
1.1797411e-10
2.7412543e-09
-1.3424267e-09
-2.8671144e-09
1.4275207e-09
2.9361522e-09
-1.7505036e-09
-2.2592287e-09
1.8486664e-09
2.3262714e-09
4.6816867e-10
-9.3795903e-10
-4.3850191e-10
9.8956333e-10
-1.2215804e-09
-3.1196699e-09
1.1429047e-09
3.1562609e-09
-1.0296699e-10
-1.292301e-10
1.7517093e-10
1.9973104e-10
7.0022508e-10
7.4694526e-10
-6.4956852e-10
-6.9586144e-10
2.4401204e-10
2.9652932e-10
-1.5625213e-10
-2.0472637e-10
3.8946176e-10
4.1867627e-10
-2.9352078e-10
-3.0579765e-10
1.2879563e-10
1.3523246e-10
-2.0147353e-11
-2.9401018e-11
2.5332368e-10
2.6101476e-10
-1.4996639e-10
-1.5608186e-10
1.8477995e-10
2.1173558e-10
-8.806235e-11
-1.0994732e-10
1.3617615e-10
1.6375216e-10
-5.2208229e-11
-7.0821566e-11
1.1085504e-10
1.3442665e-10
-4.1698213e-11
-5.5225534e-11
8.8511203e-11
1.0973235e-10
-3.461317e-11
-4.5907526e-11
6.8600382e-11
8.6009369e-11
-3.0266457e-11
-3.8025548e-11
4.969345e-11
6.3547229e-11
-2.6410728e-11
-3.1272733e-11
3.088106e-11
4.2383919e-11
-2.1603374e-11
-2.5411351e-11
1.4354526e-11
2.3372763e-11
-1.8071151e-11
-2.1094313e-11
-2.2905599e-13
5.6174161e-12
-1.5595374e-11
-1.7293802e-11
-1.5268846e-11
-1.0414853e-11
-1.1875374e-11
-1.4378618e-11
-2.9078368e-11
-2.6237461e-11
-8.6243646e-12
-1.0749981e-11
-4.2008e-11
-3.9873813e-11
-5.4534033e-12
-8.3020576e-12
-5.5437763e-11
-5.5035686e-11
-8.9913166e-13
-3.2416449e-12
-6.8346003e-11
-6.8159478e-11
4.1196125e-12
9.4259099e-13
-8.2488677e-11
-8.2898592e-11
1.1448163e-11
7.9613207e-12
-9.6912864e-11
-9.8298222e-11
2.0243589e-11
1.6900468e-11
-1.1259395e-10
-1.1585237e-10
3.1527793e-11
2.9272312e-11
-1.3117059e-10
-1.3503205e-10
4.6876157e-11
4.452784e-11
-1.5036017e-10
-1.5759808e-10
6.4000547e-11
6.4411072e-11
-1.7397786e-10
-1.8208756e-10
8.6736418e-11
8.7463576e-11
-1.9998349e-10
-2.1076359e-10
1.1299874e-10
1.1592271e-10
-2.2980427e-10
-2.4445289e-10
1.4415006e-10
1.5056953e-10
-2.6451442e-10
-2.8523445e-10
1.8119776e-10
1.934522e-10
-3.0232313e-10
-3.2371925e-10
2.2228192e-10
2.3516041e-10
-3.4849418e-10
-3.7966535e-10
2.7259168e-10
2.9543298e-10
-3.9892849e-10
-4.4393744e-10
3.2795216e-10
3.651111e-10
-4.6075616e-10
-5.0493282e-10
3.9541778e-10
4.3256476e-10
-5.1682755e-10
-5.9075924e-10
4.5776115e-10
5.2586172e-10
-5.9396547e-10
-6.8077219e-10
5.4172118e-10
6.2429908e-10
-6.6539841e-10
-7.7283146e-10
6.2043684e-10
7.2565273e-10
-7.4242144e-10
-8.8445566e-10
7.0510618e-10
8.4732004e-10
-8.1121486e-10
-9.7686021e-10
7.8179759e-10
9.503525e-10
-8.476179e-10
-1.1570309e-09
8.2621901e-10
1.1415182e-09
-1.0204721e-09
-1.2813277e-09
1.0070618e-09
1.2769069e-09
-1.1399497e-09
-1.4363668e-09
1.1343237e-09
1.4428064e-09
-1.147795e-09
-1.4996436e-09
1.1495563e-09
1.5163374e-09
-1.3395726e-09
-1.6992928e-09
1.3481223e-09
1.7252393e-09
-1.3641019e-09
-1.8426378e-09
1.3786449e-09
1.8764257e-09
-1.4392369e-09
-1.9869071e-09
1.4588171e-09
2.0267651e-09
-1.4564828e-09
-2.1104484e-09
1.4800511e-09
2.154341e-09
-1.4142409e-09
-2.2259352e-09
1.4407669e-09
2.2716991e-09
-2.1817793e-09
-2.9344366e-09
2.2104014e-09
2.9799969e-09
-1.4911091e-09
-2.2028874e-09
1.5213319e-09
2.2465194e-09
-1.3581866e-09
-2.0113852e-09
1.3901155e-09
2.0520018e-09
-1.7487242e-09
-2.56726e-09
1.7832593e-09
2.604685e-09
-1.4612948e-09
-2.9477707e-09
1.5002604e-09
2.9829538e-09
-1.4582811e-09
-3.288285e-09
1.5043871e-09
3.3233401e-09
-4.3779468e-10
-2.5238973e-09
4.9419292e-10
2.5617928e-09
-1.5107382e-09
-2.7868466e-09
1.5800165e-09
2.8306286e-09
-1.1330788e-09
-1.6063748e-09
1.2159426e-09
1.657996e-09
-1.3064782e-09
-2.9094418e-09
1.4007064e-09
2.9675754e-09
-5.9788225e-10
-2.2880627e-09
6.8610736e-10
2.3442624e-09
-6.1559916e-10
-9.6020117e-10
6.5376888e-10
1.0069028e-09
-1.2310251e-09
-3.1509163e-09
1.2175157e-09
3.2010462e-09
-3.0258761e-10
-1.8189462e-10
1.5218588e-10
1.6218559e-10
1.0255077e-09
8.4421934e-10
-7.4811996e-10
-8.1360991e-10
4.5703809e-10
3.4709023e-10
-1.6329932e-10
-2.5214862e-10
6.2118311e-10
5.1970304e-10
-3.6305334e-10
-3.9193356e-10
3.1495965e-10
2.2386832e-10
-7.0273207e-11
-1.0747375e-10
3.8821832e-10
3.2002469e-10
-1.7728212e-10
-2.1024257e-10
2.7821037e-10
2.5158208e-10
-1.055717e-10
-1.5054912e-10
1.9308675e-10
1.8531427e-10
-5.7480708e-11
-9.6485692e-11
1.4494334e-10
1.4642009e-10
-4.3097072e-11
-7.2072477e-11
1.090501e-10
1.1539907e-10
-3.5312353e-11
-5.5302771e-11
8.1015894e-11
8.9849767e-11
-3.0023178e-11
-4.350127e-11
5.8349402e-11
6.6381095e-11
-2.5847438e-11
-3.3635365e-11
3.9201584e-11
4.5266376e-11
-2.2503882e-11
-2.6163038e-11
2.2646881e-11
2.8378029e-11
-2.0139251e-11
-2.2743173e-11
6.5067087e-12
1.1106047e-11
-1.7160554e-11
-1.8601827e-11
-8.7891625e-12
-5.3693423e-12
-1.4284371e-11
-1.4814916e-11
-2.4032153e-11
-2.0599415e-11
-1.0772475e-11
-1.1669371e-11
-3.8528306e-11
-3.4926597e-11
-7.2207892e-12
-8.6412571e-12
-5.3615235e-11
-4.982965e-11
-2.1269348e-12
-4.0780404e-12
-6.7091201e-11
-6.3894702e-11
2.4718701e-12
7.5986975e-13
-8.0646085e-11
-7.9582672e-11
8.3922997e-12
8.4544369e-12
-9.5503041e-11
-9.4764803e-11
1.6908362e-11
1.6954009e-11
-1.1150963e-10
-1.1200345e-10
2.7924608e-11
2.8858537e-11
-1.2919571e-10
-1.3071991e-10
4.203764e-11
4.360994e-11
-1.4851838e-10
-1.5267804e-10
5.9139475e-11
6.294842e-11
-1.6999634e-10
-1.7650124e-10
7.9647242e-11
8.5418721e-11
-1.9494565e-10
-2.0450254e-10
1.0482251e-10
1.1326234e-10
-2.2259123e-10
-2.3640969e-10
1.3382831e-10
1.4615526e-10
-2.5513588e-10
-2.7434644e-10
1.6880075e-10
1.8615382e-10
-2.9302424e-10
-3.1453963e-10
2.1011704e-10
2.2940988e-10
-3.2821397e-10
-3.7016335e-10
2.4966931e-10
2.8902899e-10
-3.7880262e-10
-4.232788e-10
3.0549023e-10
3.4700686e-10
-4.2972492e-10
-4.8454761e-10
3.6245308e-10
4.1394566e-10
-4.8600961e-10
-5.7105222e-10
4.2552314e-10
5.0686843e-10
-5.5226203e-10
-6.5111599e-10
4.9923835e-10
5.9403867e-10
-6.2386229e-10
-7.4484272e-10
5.7890247e-10
6.9549578e-10
-6.8986086e-10
-8.4759535e-10
6.5347276e-10
8.0652403e-10
-7.0308236e-10
-8.6513046e-10
6.7565877e-10
8.3278123e-10
-9.6105544e-10
-1.0486666e-09
9.4284648e-10
1.0253618e-09
-9.1131616e-10
-1.2878082e-09
9.0239419e-10
1.2737139e-09
-1.0296848e-09
-1.3362258e-09
1.0299066e-09
1.3313132e-09
-1.146874e-09
-1.5151152e-09
1.1558473e-09
1.5191278e-09
-1.1145817e-09
-1.608619e-09
1.1316377e-09
1.6210398e-09
-1.2473753e-09
-1.8676555e-09
1.2715589e-09
1.887694e-09
-1.3193733e-09
-2.016302e-09
1.3494622e-09
2.042909e-09
-1.3332241e-09
-2.1435273e-09
1.3677862e-09
2.1754349e-09
-1.3985878e-09
-2.2616121e-09
1.4360838e-09
2.2974216e-09
-1.0536784e-09
-1.861642e-09
1.0926197e-09
1.8999598e-09
-1.4706643e-09
-2.2387983e-09
1.5098227e-09
2.278417e-09
-1.3374106e-09
-2.0440857e-09
1.3760699e-09
2.084197e-09
-1.7297595e-09
-2.5940627e-09
1.7679813e-09
2.6344672e-09
-3.3717158e-10
-2.9658164e-09
3.7602516e-10
3.0070939e-09
-1.4508896e-09
-3.2948168e-09
1.4925644e-09
3.3383765e-09
-1.5496308e-09
-2.5166198e-09
1.5972331e-09
2.5644837e-09
-4.147455e-10
-1.6548697e-09
4.7162996e-10
1.7090964e-09
-4.8645585e-11
-2.6794739e-09
1.1797417e-10
2.7412548e-09
-1.3424262e-09
-2.8671138e-09
1.4275207e-09
2.9361527e-09
-1.7505035e-09
-2.2592286e-09
1.8486668e-09
2.3262714e-09
4.6816876e-10
-9.3795897e-10
-4.3850194e-10
9.8956333e-10
-1.2215805e-09
-3.1196699e-09
1.1429049e-09
3.1562609e-09
-1.2133576e-10
-1.3446331e-10
1.7074553e-10
1.9753853e-10
6.9347197e-10
7.3480175e-10
-6.5631219e-10
-7.0842374e-10
2.4688467e-10
2.8555331e-10
-1.6276693e-10
-2.1878274e-10
3.8897716e-10
4.0517684e-10
-2.9842172e-10
-3.1971937e-10
1.2699052e-10
1.2061577e-10
-2.4021513e-11
-4.3465193e-11
2.5206936e-10
2.4801941e-10
-1.5514084e-10
-1.7036011e-10
1.817326e-10
1.9885705e-10
-9.1581081e-11
-1.2164985e-10
1.3223912e-10
1.5336449e-10
-5.4832024e-11
-8.2016657e-11
1.0764001e-10
1.2551272e-10
-4.5306868e-11
-6.4817076e-11
8.5326873e-11
1.0206886e-10
-3.8428021e-11
-5.398947e-11
6.5500951e-11
7.9477152e-11
-3.4123408e-11
-4.4745957e-11
4.6771911e-11
5.808158e-11
-2.9908155e-11
-3.6793285e-11
2.8318829e-11
3.7902862e-11
-2.4591524e-11
-2.9889212e-11
1.2167578e-11
1.975041e-11
-2.0552388e-11
-2.4675812e-11
-2.047685e-12
2.7222961e-12
-1.7627799e-11
-2.0125604e-11
-1.6750233e-11
-1.2705115e-11
-1.3520646e-11
-1.6603124e-11
-3.0265508e-11
-2.8032941e-11
-9.9407931e-12
-1.2488214e-11
-4.2946962e-11
-4.1270582e-11
-6.4965587e-12
-9.6543935e-12
-5.6172603e-11
-5.6115433e-11
-1.7189029e-12
-4.2905795e-12
-6.8916379e-11
-6.8991312e-11
3.4800814e-12
1.3013553e-13
-8.2928413e-11
-8.3537723e-11
1.0959993e-11
7.3322994e-12
-9.7249931e-11
-9.8788226e-11
1.9875621e-11
1.6413102e-11
-1.12851e-10
-1.1622787e-10
3.1241227e-11
2.8893692e-11
-1.3136562e-10
-1.3531948e-10
4.6649547e-11
4.4232892e-11
-1.5050748e-10
-1.5781918e-10
6.3826652e-11
6.4181054e-11
-1.7408834e-10
-1.8225889e-10
8.660486e-11
8.72846e-11
-2.0006662e-10
-2.108959e-10
1.1290072e-10
1.1578272e-10
-2.298663e-10
-2.4455515e-10
1.4407701e-10
1.5045976e-10
-2.6455991e-10
-2.8531335e-10
1.8114371e-10
1.9336648e-10
-3.0235717e-10
-3.2377996e-10
2.2224183e-10
2.3509308e-10
-3.4851949e-10
-3.7971227e-10
2.7256125e-10
2.9538044e-10
-3.9894643e-10
-4.4397346e-10
3.279298e-10
3.6507034e-10
-4.6076908e-10
-5.0496082e-10
3.9540188e-10
4.3253321e-10
-5.1683753e-10
-5.9078086e-10
4.5774907e-10
5.2583674e-10
-5.9397264e-10
-6.8078881e-10
5.4171183e-10
6.2427918e-10
-6.6540318e-10
-7.7284468e-10
6.204306e-10
7.2563753e-10
-7.42425e-10
-8.8446561e-10
7.0510137e-10
8.4730845e-10
-8.1121742e-10
-9.7686778e-10
7.8179394e-10
9.5034312e-10
-8.4761964e-10
-1.1570368e-09
8.2621677e-10
1.1415115e-09
-1.0204736e-09
-1.2813324e-09
1.00706e-09
1.2769017e-09
-1.1399506e-09
-1.4363703e-09
1.1343226e-09
1.442802e-09
-1.1477957e-09
-1.4996474e-09
1.1495553e-09
1.5163328e-09
-1.3395732e-09
-1.6992958e-09
1.3481211e-09
1.7252369e-09
-1.3641016e-09
-1.8426378e-09
1.3786442e-09
1.8764254e-09
-1.4392369e-09
-1.9869069e-09
1.4588169e-09
2.0267639e-09
-1.4564833e-09
-2.1104494e-09
1.4800509e-09
2.1543399e-09
-1.4142409e-09
-2.2259361e-09
1.4407669e-09
2.2716982e-09
-2.1817793e-09
-2.9344369e-09
2.2104014e-09
2.9799961e-09
-1.4911091e-09
-2.2028881e-09
1.5213318e-09
2.2465192e-09
-1.3581866e-09
-2.0113854e-09
1.3901155e-09
2.0520016e-09
-1.7487242e-09
-2.5672601e-09
1.7832592e-09
2.6046844e-09
-1.4612948e-09
-2.9477711e-09
1.5002604e-09
2.9829537e-09
-1.4582811e-09
-3.2882846e-09
1.5043871e-09
3.32334e-09
-4.3779467e-10
-2.5238975e-09
4.9419291e-10
2.5617926e-09
-1.5107382e-09
-2.7868471e-09
1.5800165e-09
2.8306285e-09
-1.1330788e-09
-1.6063749e-09
1.2159426e-09
1.6579959e-09
-1.3064786e-09
-2.9094418e-09
1.4007064e-09
2.9675754e-09
-5.9788222e-10
-2.2880627e-09
6.8610738e-10
2.3442624e-09
-6.155987e-10
-9.6020118e-10
6.537689e-10
1.0069027e-09
-1.2310252e-09
-3.1509163e-09
1.2175157e-09
3.2010462e-09
)
;

boundaryField
{
    movingWall
    {
        type            calculated;
        value           nonuniform List<scalar> 
16
(
-6.2137438e-10
-6.4683754e-10
-6.2137452e-10
-6.4683773e-10
-2.607983e-09
-2.6417675e-09
-2.607983e-09
-2.6417675e-09
5.0714571e-10
6.2098756e-10
5.0714591e-10
6.2098757e-10
2.6396463e-09
2.7005663e-09
2.6396463e-09
2.7005664e-09
)
;
    }
    CPLReceiveMD
    {
        type            calculated;
        value           nonuniform List<scalar> 
16
(
1.4358082e-09
-1.0665771e-10
-3.9957703e-10
-1.3101153e-10
1.4753391e-11
-1.5093351e-10
-1.8402212e-10
-1.532545e-10
2.6941868e-10
2.4789498e-10
1.9432299e-10
2.4832206e-10
3.7307863e-10
2.5981711e-10
2.133197e-10
2.6065429e-10
)
;
    }
    streamwiseIn
    {
        type            cyclic;
    }
    streamwiseOut
    {
        type            cyclic;
    }
    front
    {
        type            cyclic;
    }
    back
    {
        type            cyclic;
    }
}


// ************************************************************************* //
