/*--------------------------------*- C++ -*----------------------------------*\
| =========                 |                                                 |
| \\      /  F ield         | OpenFOAM: The Open Source CFD Toolbox           |
|  \\    /   O peration     | Version:  3.0.x                                 |
|   \\  /    A nd           | Web:      www.OpenFOAM.org                      |
|    \\/     M anipulation  |                                                 |
\*---------------------------------------------------------------------------*/
FoamFile
{
    version     2.0;
    format      ascii;
    class       volScalarField;
    location    "75";
    object      sigmaxz;
}
// * * * * * * * * * * * * * * * * * * * * * * * * * * * * * * * * * * * * * //

dimensions      [0 2 -2 0 0 0 0];

internalField   nonuniform List<scalar> 
960
(
3.0646389e-13
-5.7988597e-13
-3.0646389e-13
5.7988597e-13
4.5044417e-13
-2.5875081e-12
-4.5044417e-13
2.5875082e-12
3.5066302e-13
-7.4714388e-13
-3.5066299e-13
7.4714391e-13
2.4994078e-13
-5.1689505e-13
-1.914281e-12
2.1812352e-12
1.8534398e-12
-3.4462503e-13
-1.8909966e-13
2.0089652e-12
1.2322425e-13
-1.9684424e-13
-1.2322425e-13
1.9684427e-13
1.7428108e-12
-1.6102822e-13
-7.8470606e-14
1.8253684e-12
3.5153324e-14
-1.5243374e-13
-3.515336e-14
1.8167739e-12
4.8942086e-15
-1.4051366e-13
-4.8942086e-15
1.4051366e-13
-1.2258395e-14
-1.0292324e-13
1.2258431e-14
1.0292324e-13
-1.9485429e-14
-7.5878466e-14
1.9485429e-14
7.5878429e-14
-2.1690027e-14
-5.5123079e-14
2.1690064e-14
5.5123079e-14
-2.082679e-14
-4.1543012e-14
2.0826754e-14
4.1543012e-14
-1.7625246e-14
-3.2317874e-14
1.7625246e-14
3.2317874e-14
-1.3473915e-14
-2.5498039e-14
1.3473897e-14
2.5498057e-14
-9.4314828e-15
-2.0284512e-14
9.4314828e-15
2.0284512e-14
-5.8792165e-15
-1.6232985e-14
5.8791984e-15
1.6233004e-14
-3.0637289e-15
-1.3079808e-14
3.0637107e-15
1.3079826e-14
-9.7216284e-16
-1.0681863e-14
9.7218103e-16
1.0681882e-14
4.862878e-16
-8.9046251e-15
-4.8629689e-16
8.9046342e-15
1.3985617e-15
-7.6201307e-15
-1.3985617e-15
7.6201398e-15
1.8832467e-15
-6.6771629e-15
-1.8832558e-15
6.6771629e-15
2.0621898e-15
-5.2385664e-15
-2.0621807e-15
5.2385755e-15
2.054196e-15
-3.9563429e-15
-2.0541869e-15
3.956352e-15
1.9613466e-15
-2.978058e-15
-1.9613466e-15
2.9780944e-15
1.847902e-15
-2.2527869e-15
-1.8479202e-15
2.2527869e-15
1.6871719e-15
-1.7190214e-15
-1.6871719e-15
1.7190214e-15
1.4886467e-15
-1.3235961e-15
-1.488683e-15
1.3235961e-15
1.2781515e-15
-1.0272324e-15
-1.2781515e-15
1.0272324e-15
1.0745068e-15
-8.0318024e-16
-1.0745068e-15
8.03253e-16
8.8803149e-16
-6.3153953e-16
-8.8803149e-16
6.3153953e-16
7.2358415e-16
-4.9834205e-16
-7.2372966e-16
4.9834205e-16
5.8282146e-16
-3.9357209e-16
-5.8282146e-16
3.9357209e-16
4.6468743e-16
-3.1130214e-16
-4.6468743e-16
3.1130214e-16
3.67526e-16
-2.4567892e-16
-3.6694398e-16
2.4567892e-16
2.8794008e-16
-1.9369804e-16
-2.8794008e-16
1.9369804e-16
2.2417838e-16
-1.5180865e-16
-2.2417838e-16
1.5239066e-16
1.7401879e-16
-1.1892831e-16
-1.7285476e-16
1.1951032e-16
1.334028e-16
-9.284373e-17
-1.334028e-16
9.3425747e-17
1.0081833e-16
-7.2805505e-17
-1.0198236e-16
7.3969539e-17
7.7729362e-17
-5.5329604e-17
-7.7729362e-17
5.6493638e-17
5.9096341e-17
-4.3658546e-17
-5.9096341e-17
4.3658546e-17
4.4793335e-17
-3.1827124e-17
-4.4793335e-17
3.648326e-17
3.3879957e-17
-2.4955389e-17
-3.3879957e-17
2.7283456e-17
2.5787062e-17
-1.9851386e-17
-2.5787062e-17
2.2179454e-17
2.4477651e-17
-1.8553769e-17
-1.9821516e-17
1.8553769e-17
1.5360898e-17
-1.5443741e-17
-1.5360898e-17
1.5443741e-17
1.1966341e-17
-1.2009086e-17
-1.1966341e-17
1.2009086e-17
1.0009104e-17
-8.482641e-18
-1.0009104e-17
8.482641e-18
8.6294922e-18
3.3665004e-18
-8.6294922e-18
5.9457714e-18
7.5851004e-18
-5.3931407e-18
-7.5851004e-18
5.3931407e-18
5.2785968e-18
-5.0508817e-18
-5.2785968e-18
5.0508817e-18
1.2225335e-17
-3.7193357e-18
-2.9130633e-18
3.7193357e-18
-1.7856677e-17
1.7444089e-17
-7.6786663e-19
1.1804542e-18
-5.7653908e-20
3.5951134e-19
5.7653908e-20
-3.5951134e-19
5.8216771e-19
-3.1530169e-19
-5.8216771e-19
3.1530169e-19
1.9894758e-17
9.7995168e-19
-1.2702147e-18
-1.9604495e-17
3.1579297e-18
4.7959068e-18
-3.1579297e-18
1.3828637e-17
3.8570995e-18
-1.1814955e-17
-3.8570995e-18
-6.8095881e-18
3.8494086e-18
3.0576332e-18
-3.8494086e-18
-3.0576332e-18
-1.586211e-12
-1.0842275e-10
1.586211e-12
1.2506615e-10
-5.0699323e-12
7.6973964e-11
3.4055921e-12
-7.6973964e-11
-3.3540041e-12
7.0251144e-11
3.3540041e-12
-7.0251144e-11
-3.2741909e-12
6.9902889e-11
3.2741908e-12
-6.9902889e-11
-3.0494205e-12
6.0487302e-11
3.0494205e-12
-6.0487302e-11
-9.9382427e-13
4.9104017e-11
9.9382427e-13
-4.7439676e-11
-2.3961438e-12
3.5823135e-11
2.3961438e-12
-3.5823135e-11
-5.3477625e-13
2.3521923e-11
2.1991164e-12
-2.5186263e-11
-3.7988248e-13
1.6015111e-11
3.7988248e-13
-1.4350771e-11
-1.9316365e-12
9.8803165e-12
2.6729632e-13
-9.8803165e-12
-1.8817962e-13
6.3949922e-12
1.8817958e-13
-6.3949922e-12
-1.3484817e-13
3.6243235e-12
1.3484817e-13
-3.6243235e-12
-9.877476e-14
2.9428576e-12
1.7631149e-12
-2.9428576e-12
-7.3561921e-14
8.4969961e-13
7.3561921e-14
-2.5140397e-12
-5.5389506e-14
5.7385753e-13
5.5389525e-14
-5.7385753e-13
-4.2005765e-14
3.9181515e-13
4.2005765e-14
-3.9181515e-13
-3.2010502e-14
2.6887906e-13
3.201052e-14
-2.6887908e-13
-2.44658e-14
1.8439083e-13
2.4465818e-14
-1.8439083e-13
-1.879681e-14
1.7900011e-12
1.879681e-14
-1.2566091e-13
-1.4587908e-14
8.4567553e-14
1.4587908e-14
-8.4567553e-14
-1.152241e-14
5.5764307e-14
1.152241e-14
-5.5764307e-14
-9.3263464e-15
3.5639564e-14
9.3263464e-15
-3.5639564e-14
-7.7755566e-15
2.2932085e-14
7.7755475e-15
-2.2932094e-14
-6.5924754e-15
1.5721006e-14
6.5924663e-15
-1.5721006e-14
-5.3269254e-15
1.0979933e-14
5.3269254e-15
-1.0979952e-14
-3.9822301e-15
7.7137407e-15
3.9822301e-15
-7.7137407e-15
-2.8506785e-15
5.4528693e-15
2.8506967e-15
-5.4528693e-15
-2.0187581e-15
3.8794238e-15
2.0187581e-15
-3.8794238e-15
-1.4386173e-15
2.7784112e-15
1.4386173e-15
-2.7784112e-15
-1.037523e-15
2.0010295e-15
1.037523e-15
-2.0010295e-15
-7.5599655e-16
1.4490511e-15
7.5599655e-16
-1.4490511e-15
-5.5583352e-16
1.0546482e-15
5.5597903e-16
-1.0546482e-15
-4.1167304e-16
7.7185955e-16
4.1167304e-16
-7.7185955e-16
-3.0712676e-16
5.6658999e-16
3.0683575e-16
-5.6658999e-16
-2.3008962e-16
4.1792813e-16
2.2979861e-16
-4.1792813e-16
-1.7268544e-16
3.0889005e-16
1.7297645e-16
-3.0889005e-16
-1.299392e-16
2.2871179e-16
1.299392e-16
-2.2871179e-16
-9.8368492e-17
1.6898612e-16
9.7786475e-17
-1.6956813e-16
-7.3477122e-17
1.2582029e-16
7.3477122e-17
-1.2582029e-16
-5.3926274e-17
9.3486153e-17
5.6254342e-17
-9.3486153e-17
-4.1158416e-17
6.8357734e-17
4.1158416e-17
-6.9521768e-17
-2.8320373e-17
5.1820878e-17
3.0648441e-17
-5.1820878e-17
-2.309232e-17
3.629694e-17
2.309232e-17
-3.8625008e-17
-1.7294275e-17
2.9075789e-17
1.9622343e-17
-2.9075789e-17
-1.4975222e-17
2.2209937e-17
1.2647154e-17
-2.2209937e-17
-9.4125759e-18
1.6751001e-17
9.4125759e-18
-1.6751001e-17
-7.0794872e-18
7.7198475e-18
7.0794872e-18
-1.2375983e-17
-4.7707378e-18
9.1133059e-18
4.7707378e-18
-9.1133059e-18
-3.6458802e-18
6.7547561e-18
3.6458802e-18
-6.7547561e-18
-2.1028039e-18
5.2491308e-18
2.1028039e-18
-5.2491308e-18
-1.5562379e-18
4.2239006e-18
1.5562379e-18
-4.2239006e-18
-1.4120312e-18
4.2156887e-18
1.4120312e-18
-4.2156887e-18
-2.90322e-18
4.1928606e-18
2.90322e-18
-4.1928606e-18
1.4325243e-17
4.2431853e-18
-1.4325243e-17
-4.2431853e-18
-7.1116717e-18
2.2393539e-17
7.1116717e-18
-3.768995e-18
1.0686515e-17
2.3588819e-17
7.9380286e-18
-4.964275e-18
-2.8235598e-17
6.7399603e-18
-9.0134895e-18
-6.7399603e-18
9.2651667e-18
6.6161722e-18
-9.2651667e-18
-2.5240716e-17
-6.5685449e-18
2.4790561e-17
6.5685449e-18
-6.1660178e-18
-4.2511863e-18
5.6181506e-18
4.2511863e-18
-5.6181506e-18
-3.0646389e-13
5.7988597e-13
3.0646389e-13
-5.7988597e-13
-4.5044417e-13
2.5875081e-12
4.5044417e-13
-2.5875082e-12
-3.5066299e-13
7.4714391e-13
3.5066299e-13
-7.4714391e-13
-2.4994078e-13
5.1689505e-13
1.914281e-12
-2.1812352e-12
-1.8534398e-12
3.4462506e-13
1.8909966e-13
-2.0089652e-12
-1.2322425e-13
1.9684429e-13
1.2322425e-13
-1.9684425e-13
-1.7428108e-12
1.6102822e-13
7.8470642e-14
-1.8253684e-12
-3.515336e-14
1.5243374e-13
3.515336e-14
-1.8167739e-12
-4.8942086e-15
1.4051366e-13
4.8942086e-15
-1.4051366e-13
1.2258431e-14
1.0292324e-13
-1.2258431e-14
-1.0292321e-13
1.9485429e-14
7.5878466e-14
-1.9485429e-14
-7.5878429e-14
2.1690064e-14
5.5123079e-14
-2.1690064e-14
-5.5123079e-14
2.0826754e-14
4.1543012e-14
-2.0826754e-14
-4.1543012e-14
1.7625246e-14
3.2317838e-14
-1.7625246e-14
-3.2317874e-14
1.3473915e-14
2.5498039e-14
-1.3473915e-14
-2.5498057e-14
9.4314828e-15
2.0284512e-14
-9.4314828e-15
-2.0284512e-14
5.8791802e-15
1.6233004e-14
-5.8791984e-15
-1.6233004e-14
3.0637107e-15
1.3079828e-14
-3.0637107e-15
-1.3079846e-14
9.7218103e-16
1.0681882e-14
-9.7218103e-16
-1.0681882e-14
-4.8629689e-16
8.9046342e-15
4.8629689e-16
-8.9046342e-15
-1.3985617e-15
7.6201398e-15
1.3985617e-15
-7.6201489e-15
-1.8832558e-15
6.6771629e-15
1.8832558e-15
-6.6771629e-15
-2.0621807e-15
5.2385755e-15
2.0621807e-15
-5.2385755e-15
-2.0541869e-15
3.9563429e-15
2.0541869e-15
-3.956352e-15
-1.9613466e-15
2.9780762e-15
1.9613466e-15
-2.9780944e-15
-1.8479202e-15
2.2528051e-15
1.8479202e-15
-2.2528051e-15
-1.6871719e-15
1.7190214e-15
1.6871719e-15
-1.7190214e-15
-1.488683e-15
1.3235963e-15
1.488683e-15
-1.3236327e-15
-1.2781515e-15
1.0272324e-15
1.2781515e-15
-1.0272324e-15
-1.074507e-15
8.0318024e-16
1.074507e-15
-8.0332575e-16
-8.8803149e-16
6.3153953e-16
8.8803149e-16
-6.3153953e-16
-7.2372966e-16
4.9834205e-16
7.2372966e-16
-4.9834205e-16
-5.8282146e-16
3.9357211e-16
5.8282146e-16
-3.9357211e-16
-4.6468743e-16
3.1130214e-16
4.6468743e-16
-3.1130214e-16
-3.6723499e-16
2.4567891e-16
3.6723499e-16
-2.4596992e-16
-2.8794008e-16
1.9340703e-16
2.8794008e-16
-1.9369804e-16
-2.2417838e-16
1.5239066e-16
2.2417838e-16
-1.5239066e-16
-1.7343678e-16
1.1951032e-16
1.7343678e-16
-1.1951032e-16
-1.334028e-16
9.3425747e-17
1.334028e-16
-9.3425747e-17
-1.0314639e-16
7.2805503e-17
1.0198236e-16
-7.3969537e-17
-7.7729362e-17
5.765767e-17
7.7729362e-17
-5.6493636e-17
-6.1424409e-17
4.3658545e-17
5.9096341e-17
-4.3658545e-17
-4.4793335e-17
3.4155191e-17
4.4793335e-17
-3.6483259e-17
-3.3879957e-17
2.7283456e-17
3.3879957e-17
-2.7283456e-17
-2.3458992e-17
1.9851386e-17
2.578706e-17
-2.2179454e-17
-1.9821514e-17
1.8553767e-17
1.9821514e-17
-1.8553767e-17
-1.5360894e-17
2.0099877e-17
1.5360894e-17
-1.5443741e-17
-1.1966339e-17
1.2009086e-17
1.1966339e-17
-1.2009086e-17
-1.00091e-17
8.4826408e-18
1.00091e-17
-8.4826408e-18
-8.6294905e-18
5.945771e-18
8.6294905e-18
-5.945771e-18
-7.5850971e-18
5.3931406e-18
7.5850971e-18
-5.3931406e-18
-5.2785936e-18
5.0508817e-18
5.2785936e-18
-5.0508817e-18
-2.9130599e-18
3.7193357e-18
2.9130599e-18
-3.7193357e-18
-7.678633e-19
1.1804541e-18
7.678633e-19
-1.1804541e-18
5.7657736e-20
-1.8984055e-17
-5.7657736e-20
3.5951107e-19
-5.8216438e-19
-1.8309242e-17
5.8216438e-19
-3.1530197e-19
1.7354332e-17
1.7644592e-17
1.2702116e-18
1.9604495e-17
-3.1579273e-18
-4.7959067e-18
3.1579273e-18
2.342045e-17
-3.8570977e-18
-6.809588e-18
3.8570977e-18
6.809588e-18
-3.8494077e-18
-3.057633e-18
3.8494077e-18
3.057633e-18
1.586211e-12
1.0842275e-10
-1.586211e-12
-1.2506615e-10
5.0699323e-12
-7.6973964e-11
-3.4055921e-12
7.6973964e-11
3.354004e-12
-7.0251144e-11
-3.354004e-12
7.0251144e-11
3.2741909e-12
-6.9902889e-11
-3.2741908e-12
6.9902889e-11
3.0494205e-12
-6.0487302e-11
-3.0494205e-12
6.0487302e-11
9.9382431e-13
-4.9104017e-11
-9.9382427e-13
4.7439676e-11
2.3961439e-12
-3.5823135e-11
-2.3961439e-12
3.5823135e-11
5.3477629e-13
-2.3521923e-11
-2.1991164e-12
2.5186263e-11
3.7988251e-13
-1.6015111e-11
-3.7988248e-13
1.4350771e-11
1.9316365e-12
-9.8803165e-12
-2.6729632e-13
9.8803165e-12
1.8817962e-13
-6.3949922e-12
-1.8817958e-13
6.3949922e-12
1.3484813e-13
-3.6243235e-12
-1.3484817e-13
3.6243236e-12
9.8774796e-14
-2.9428576e-12
-1.7631149e-12
2.9428577e-12
7.3561921e-14
-8.4969957e-13
-7.3561921e-14
2.5140397e-12
5.5389506e-14
-5.7385751e-13
-5.5389506e-14
5.7385753e-13
4.2005783e-14
-3.9181515e-13
-4.2005747e-14
3.9181515e-13
3.2010539e-14
-2.6887908e-13
-3.2010502e-14
2.688791e-13
2.4465818e-14
-1.8439083e-13
-2.4465818e-14
1.8439085e-13
1.8796791e-14
-1.7900011e-12
-1.879681e-14
1.2566091e-13
1.4587917e-14
-8.4567553e-14
-1.4587908e-14
8.4567553e-14
1.152241e-14
-5.5764316e-14
-1.152241e-14
5.5764316e-14
9.3263555e-15
-3.5639564e-14
-9.3263464e-15
3.5639564e-14
7.7755566e-15
-2.2932094e-14
-7.7755475e-15
2.2932094e-14
6.5924754e-15
-1.5721006e-14
-6.5924663e-15
1.5721015e-14
5.3269254e-15
-1.0979952e-14
-5.3269254e-15
1.097997e-14
3.9822482e-15
-7.7137589e-15
-3.9822301e-15
7.7137589e-15
2.8506785e-15
-5.4528693e-15
-2.8506785e-15
5.4528875e-15
2.0187944e-15
-3.8794238e-15
-2.0187581e-15
3.8794601e-15
1.4386173e-15
-2.7784112e-15
-1.4386173e-15
2.7784475e-15
1.037523e-15
-2.0009568e-15
-1.037523e-15
2.0011023e-15
7.5599655e-16
-1.4490511e-15
-7.559238e-16
1.4490511e-15
5.5597903e-16
-1.0546482e-15
-5.5597903e-16
1.0546482e-15
4.1181854e-16
-7.7185955e-16
-4.1167304e-16
7.7200505e-16
3.0712676e-16
-5.6658999e-16
-3.0683575e-16
5.6658999e-16
2.2979861e-16
-4.1792813e-16
-2.2979861e-16
4.1821914e-16
1.7297645e-16
-3.0859904e-16
-1.7268544e-16
3.0889005e-16
1.299392e-16
-2.2871179e-16
-1.299392e-16
2.2929381e-16
9.8368492e-17
-1.6956813e-16
-9.8368492e-17
1.7015015e-16
7.3477122e-17
-1.2582029e-16
-7.2895105e-17
1.264023e-16
5.6254342e-17
-9.3486153e-17
-5.5090308e-17
9.4650187e-17
4.232245e-17
-6.9521768e-17
-4.1158416e-17
6.9521768e-17
3.0648458e-17
-5.1820878e-17
-3.0648458e-17
5.1820878e-17
2.3092337e-17
-3.8625008e-17
-2.3092337e-17
4.0953076e-17
1.7294275e-17
-2.9075789e-17
-1.9622343e-17
2.9075789e-17
1.2647154e-17
-1.9881869e-17
-1.0319086e-17
2.2209937e-17
9.4125759e-18
-1.6751001e-17
-9.4125759e-18
1.6751001e-17
7.0795038e-18
-1.2375983e-17
-7.0795038e-18
1.2375983e-17
4.7707428e-18
-9.1133059e-18
-4.7707428e-18
1.3769442e-17
8.3020211e-18
-6.7547561e-18
-3.6458852e-18
6.7547561e-18
2.1028089e-18
-5.2491308e-18
-2.1028089e-18
5.2491308e-18
1.5562413e-18
-4.2239006e-18
-1.5562413e-18
4.2239006e-18
1.4120345e-18
-4.2156871e-18
-1.4120345e-18
1.3527959e-17
2.903225e-18
-4.1928606e-18
-2.903225e-18
1.3505132e-17
4.2993035e-18
-4.2431853e-18
1.432524e-17
4.2431853e-18
7.1116749e-18
-3.7689946e-18
-7.1116749e-18
3.7689946e-18
-1.0686512e-17
-4.9642748e-18
-7.9380312e-18
2.3588818e-17
9.6110561e-18
-2.5364503e-17
9.0134875e-18
6.7399598e-18
9.3593785e-18
-6.616172e-18
9.2651651e-18
6.616172e-18
6.5685456e-18
-6.1660176e-18
1.2055998e-17
2.4790561e-17
4.2511864e-18
-5.6181506e-18
-4.2511864e-18
2.4242694e-17
)
;

boundaryField
{
    movingWall
    {
        type            calculated;
        value           nonuniform List<scalar> 
16
(
3.8494086e-18
-4.2511863e-18
-3.8494077e-18
4.2511864e-18
3.0576332e-18
5.6181506e-18
-3.057633e-18
-5.6181506e-18
-3.8494086e-18
4.2511863e-18
3.8494077e-18
-4.2511864e-18
-3.0576332e-18
-5.6181506e-18
3.057633e-18
2.4242694e-17
)
;
    }
    CPLReceiveMD
    {
        type            calculated;
        value           nonuniform List<scalar> 
16
(
3.0646389e-13
-1.586211e-12
-3.0646389e-13
1.586211e-12
-5.7988597e-13
-1.0842275e-10
5.7988597e-13
1.0842275e-10
-3.0646389e-13
1.586211e-12
3.0646389e-13
-1.586211e-12
5.7988597e-13
1.2506615e-10
-5.7988597e-13
-1.2506615e-10
)
;
    }
    streamwiseIn
    {
        type            cyclic;
    }
    streamwiseOut
    {
        type            cyclic;
    }
    front
    {
        type            cyclic;
    }
    back
    {
        type            cyclic;
    }
}


// ************************************************************************* //
