/*--------------------------------*- C++ -*----------------------------------*\
| =========                 |                                                 |
| \\      /  F ield         | OpenFOAM: The Open Source CFD Toolbox           |
|  \\    /   O peration     | Version:  3.0.1                                 |
|   \\  /    A nd           | Web:      www.OpenFOAM.org                      |
|    \\/     M anipulation  |                                                 |
\*---------------------------------------------------------------------------*/
FoamFile
{
    version     2.0;
    format      ascii;
    class       surfaceScalarField;
    location    "150";
    object      phi;
}
// * * * * * * * * * * * * * * * * * * * * * * * * * * * * * * * * * * * * * //

dimensions      [0 3 -1 0 0 0 0];

internalField   nonuniform List<scalar> 
1072
(
-0.52159191
8.350385e-08
-1.3468365e-09
-0.52159197
-1.0423225e-08
6.4560761e-09
-0.52159191
-9.1522627e-08
-1.3501168e-09
-5.2301942e-08
-2.8587969e-09
-0.39622904
1.1713851e-07
-4.4984894e-09
-0.39622908
6.1880492e-08
4.47581e-09
-0.39622903
-1.0156169e-07
2.180562e-09
-1.0717318e-07
-3.2652166e-10
-0.33956278
3.2694638e-07
-8.1278662e-09
-0.33956301
2.8662034e-07
7.9657863e-10
-0.33956275
-2.9426896e-07
3.9701715e-09
-3.0518125e-07
1.9177508e-09
-0.27125422
6.19832e-07
-7.250364e-09
-0.27125451
5.6614109e-07
-1.0112423e-09
-0.27125419
-5.8322739e-07
4.0838041e-09
-5.6551813e-07
2.8140645e-09
-0.20624574
1.0020697e-06
-5.2077455e-09
-0.2062461
9.2083687e-07
-1.5756414e-09
-0.20624572
-9.6530828e-07
3.512347e-09
-9.0783291e-07
2.9478625e-09
-0.15406757
1.3668298e-06
-3.1087348e-09
-0.15406791
1.2713628e-06
-1.2900779e-09
-0.15406757
-1.3278331e-06
2.5931948e-09
-1.2466596e-06
2.5536513e-09
-0.11553421
1.6060193e-06
-1.5801745e-09
-0.11553444
1.517573e-06
-7.2660605e-10
-0.11553423
-1.5613248e-06
1.7774461e-09
-1.4798074e-06
2.0373655e-09
-0.087939091
1.6930167e-06
-6.7072369e-10
-0.087939184
1.624124e-06
-1.9299426e-10
-0.087939122
-1.6399317e-06
1.1836762e-09
-1.5721516e-06
1.6021185e-09
-0.068047206
1.6574056e-06
-1.8541216e-10
-0.068047178
1.610736e-06
2.0508983e-10
-0.068047236
-1.5944682e-06
7.8660825e-10
-1.5444168e-06
1.2855367e-09
-0.053197825
1.54727e-06
5.5700892e-11
-0.053197721
1.5198935e-06
4.5515575e-10
-0.053197851
-1.4740944e-06
5.2886935e-10
-1.4400379e-06
1.0610779e-09
-0.041510722
1.406746e-06
1.6591389e-10
-0.041510584
1.3940076e-06
5.8334632e-10
-0.041510742
-1.323679e-06
3.6381715e-10
-1.3020466e-06
8.9159062e-10
-0.031766598
1.2676293e-06
2.0413192e-10
-0.03176646
1.2653465e-06
6.2331459e-10
-0.031766613
-1.1754389e-06
2.6149502e-10
-1.1629946e-06
7.4838893e-10
-0.023214051
1.1488622e-06
2.0044818e-10
-0.023213932
1.1541638e-06
6.020796e-10
-0.023214062
-1.0484956e-06
2.0367611e-10
-1.043174e-06
6.1464542e-10
-0.015395631
1.0590852e-06
2.0447491e-10
-0.015395541
1.0706069e-06
5.4221674e-10
-0.01539564
-9.5162207e-07
1.7849776e-10
-9.5263528e-07
4.8303344e-10
-0.0080173508
1.0001674e-06
1.8451308e-10
-0.0080172928
1.0177388e-06
4.6068938e-10
-0.0080173589
-8.8663478e-07
1.7749382e-10
-8.9428258e-07
3.5188413e-10
-0.00086042732
9.6979687e-07
2.3684036e-10
-0.00086040036
9.9436541e-07
3.6940493e-10
-0.00086043599
-8.5132411e-07
1.9416213e-10
-8.667596e-07
2.2221333e-10
0.0062737397
9.6393226e-07
2.9382639e-10
0.006273739
9.9720912e-07
2.7665569e-10
0.0062737296
-8.4159325e-07
2.2329894e-10
-8.6662393e-07
9.4138504e-11
0.013595186
9.780279e-07
3.5454807e-10
0.013595162
1.0223495e-06
1.8784503e-10
0.013595174
-8.5282839e-07
2.6058746e-10
-8.8980821e-07
-2.8977896e-11
0.021341913
1.0077855e-06
4.1716148e-10
0.021341869
1.0660527e-06
1.0617259e-10
0.021341898
-8.806529e-07
3.0283429e-10
-9.3247727e-07
-1.3225957e-10
0.02978754
1.0494719e-06
4.7967727e-10
0.02978748
1.125152e-06
3.2919479e-11
0.029787522
-9.2124582e-07
3.4772431e-10
-9.9127268e-07
-2.71756e-10
0.039244356
1.0999554e-06
5.4001667e-10
0.039244283
1.1971327e-06
-3.1509636e-11
0.039244334
-9.7139261e-07
3.9325589e-10
-1.063638e-06
-3.7434753e-10
0.050064456
1.156602e-06
5.9641151e-10
0.050064371
1.2800461e-06
-8.7266333e-11
0.050064429
-1.028377e-06
4.3800098e-10
-1.1475502e-06
-4.616231e-10
0.062640528
1.2171037e-06
6.4745118e-10
0.062640432
1.3723407e-06
-1.3478205e-10
0.062640495
-1.0898121e-06
4.8164038e-10
-1.241383e-06
-5.3947542e-10
0.077407031
1.2792978e-06
6.9204617e-10
0.077406927
1.4726634e-06
-1.7090492e-10
0.077406992
-1.1534626e-06
5.2440115e-10
-1.3437216e-06
-6.0923627e-10
0.094842003
1.3410124e-06
7.2939816e-10
0.094841892
1.5797102e-06
-2.097741e-10
0.094841956
-1.217088e-06
5.6622047e-10
-1.4531816e-06
-6.7097632e-10
0.11546939
1.3999505e-06
7.5892162e-10
0.11546927
1.69202e-06
-2.3806701e-10
0.11546934
-1.2783287e-06
6.0654141e-10
-1.5682548e-06
-7.2444021e-10
0.13986166
1.453624e-06
7.8026074e-10
0.13986153
1.8078848e-06
-2.5801538e-10
0.13986159
-1.3346395e-06
6.4494634e-10
-1.6871882e-06
-7.6933273e-10
0.16864227
1.4993358e-06
7.9327701e-10
0.16864215
1.9252636e-06
-2.7173141e-10
0.1686422
-1.3832709e-06
6.8105869e-10
-1.8078984e-06
-8.0541756e-10
0.20248774
1.5342069e-06
7.9800487e-10
0.20248762
2.0417274e-06
-2.8001428e-10
0.20248766
-1.4212967e-06
7.1448332e-10
-1.9279179e-06
-8.3255114e-10
0.24212878
1.5552441e-06
7.9461533e-10
0.24212866
2.1544331e-06
-2.8317206e-10
0.24212869
-1.4456814e-06
7.4476559e-10
-2.0443696e-06
-8.5069102e-10
0.28835029
1.5594432e-06
7.833892e-10
0.28835017
2.2601242e-06
-2.8131271e-10
0.28835018
-1.4533833e-06
7.7136846e-10
-2.1539665e-06
-8.598929e-10
0.34198981
1.5439212e-06
7.646973e-10
0.34198971
2.3551532e-06
-2.7445166e-10
0.3419897
-1.4414866e-06
7.9367165e-10
-2.2530343e-06
-8.6030493e-10
0.40393431
1.5060725e-06
7.3898718e-10
0.40393422
2.4355277e-06
-2.6255012e-10
0.40393419
-1.4073574e-06
8.1098541e-10
-2.3375565e-06
-8.5216279e-10
0.47511495
1.4437402e-06
7.0677513e-10
0.47511489
2.4969794e-06
-2.453959e-10
0.47511483
-1.3488145e-06
8.2257303e-10
-2.4032429e-06
-8.3578711e-10
0.55649986
1.355397e-06
6.6864212e-10
0.55649981
2.5350587e-06
-2.2282051e-10
0.55649973
-1.2643099e-06
8.2768037e-10
-2.4456242e-06
-8.1158372e-10
0.64908465
1.2403234e-06
6.2523088e-10
0.64908464
2.5452601e-06
-1.9569613e-10
0.64908453
-1.1531066e-06
8.2556801e-10
-2.4601748e-06
-7.8004674e-10
0.7538809
1.098774e-06
5.7723774e-10
0.75388092
2.5231747e-06
-1.6326102e-10
0.75388078
-1.0154442e-06
8.1554248e-10
-2.4424669e-06
-7.4176277e-10
0.87190235
9.3211827e-07
5.2541012e-10
0.87190241
2.4646803e-06
-1.2555156e-10
0.87190224
-8.5267976e-07
7.9699925e-10
-2.3883602e-06
-6.9741516e-10
1.0041492
7.4294213e-07
4.7053941e-10
1.0041493
2.3661655e-06
-8.2623924e-11
1.0041491
-6.6738801e-07
7.694641e-10
-2.2942244e-06
-6.4778655e-10
1.1515906
5.3509501e-07
4.1344994e-10
1.1515907
2.2247875e-06
-3.4575551e-11
1.1515905
-4.6340862e-07
7.326343e-10
-2.1571972e-06
-5.9375905e-10
1.3151453
3.136693e-07
3.5498338e-10
1.3151455
2.038759e-06
1.8443338e-11
1.3151453
-2.4582478e-07
6.8641885e-10
-1.975471e-06
-5.3631018e-10
1.4956618
8.4898875e-08
2.9597868e-10
1.495662
1.8076566e-06
7.6220913e-11
1.4956618
-2.0861383e-08
6.3097668e-10
-1.7486013e-06
-4.7650323e-10
1.6938968
-1.4403178e-07
2.3724786e-10
1.6938971
1.5327394e-06
1.3847717e-10
1.6938968
2.0430627e-07
5.6675154e-10
-1.4778248e-06
-4.1547079e-10
1.9104942
-3.6527167e-07
1.7954816e-10
1.9104945
1.2172603e-06
2.0485959e-10
1.9104943
4.2183681e-07
4.9450208e-10
-1.1663711e-06
-3.5439054e-10
2.1459637
-5.7067704e-07
1.2355139e-10
2.145964
8.6675045e-07
2.7494023e-10
2.1459638
6.2359652e-07
4.1532691e-10
-8.197481e-07
-2.9445384e-10
2.4006607
-7.5226226e-07
6.9811275e-11
2.4006611
4.8925307e-07
3.4821212e-10
2.4006609
8.0160977e-07
3.3068112e-10
-4.4597603e-07
-2.3682702e-10
2.6747677
-9.0270512e-07
1.873117e-11
2.674768
9.5476993e-08
4.2408022e-10
2.6747679
9.4856303e-07
2.4238312e-10
-5.5743251e-08
-1.826066e-10
2.9682771
-1.0158725e-06
-2.9466405e-11
2.9682775
-3.0116025e-07
5.0183918e-10
2.9682774
1.0583283e-06
1.5260251e-10
3.3754813e-07
-1.3276942e-10
3.2809779
-1.0873216e-06
-7.4765649e-11
3.2809783
-6.8463753e-07
5.8062917e-10
3.2809782
1.1264606e-06
6.3836614e-11
7.1788322e-07
-8.8127876e-11
3.6124444
-1.1147236e-06
-1.1737182e-10
3.6124448
-1.036628e-06
6.5934817e-10
3.6124448
1.1506159e-06
-2.1157872e-11
1.0669268e-06
-4.9272109e-11
3.9620298
-1.0981488e-06
-1.5770705e-10
3.9620301
-1.3370489e-06
7.3650925e-10
3.9620301
1.1308303e-06
-9.9474704e-11
1.3645668e-06
-1.6520561e-11
4.328863
-1.0401581e-06
-1.9637342e-10
4.3288632
-1.5649469e-06
8.100369e-10
4.3288633
1.0696041e-06
-1.6823248e-10
1.5897935e-06
1.0146009e-11
4.7118508
-9.4565359e-07
-2.340645e-10
4.7118509
-1.6998429e-06
8.7701211e-10
4.711851
9.7174914e-07
-2.2477193e-10
1.7220424e-06
3.1179351e-11
5.1096844
-8.2147881e-07
-2.7140213e-10
5.1096844
-1.7237292e-06
9.3341311e-10
5.1096845
8.4399143e-07
-2.669383e-10
1.7431961e-06
4.7602995e-11
5.5208504
-6.7582407e-07
-3.0868058e-10
5.5208503
-1.62402e-06
9.7393781e-10
5.5208505
6.9439389e-07
-2.9318652e-10
1.6405562e-06
6.1219452e-11
5.9436473
-5.1761688e-07
-3.4552218e-10
5.9436471
-1.3979342e-06
9.9211863e-10
5.9436473
5.3178456e-07
-3.0228074e-10
1.4112705e-06
7.4846262e-11
6.3762054
-3.5626473e-07
-3.8051929e-10
6.3762051
-1.0589406e-06
9.8151841e-10
6.3762052
3.6556831e-07
-2.922381e-10
1.0688497e-06
9.2098408e-11
6.8165116
-2.0233378e-07
-4.1153615e-10
6.8165112
-6.4579755e-07
9.3777903e-10
6.8165113
2.0650463e-07
-2.5777054e-10
6.5230649e-07
1.1611747e-10
7.2624372
-7.1068592e-08
-4.3616134e-10
7.2624368
-2.3770669e-07
8.6202562e-10
7.2624369
7.054508e-08
-1.9595267e-10
2.4135113e-07
1.4283532e-10
7.7117689
-4.0918907e-10
7.7117686
6.5864772e-10
7.7117687
-7.5982446e-11
1.5770738e-10
-0.5215919
4.2212033e-08
-0.52159196
-3.5638962e-08
-0.52159189
-3.6086811e-08
-5.6969075e-09
-0.39622905
9.9110145e-08
-0.39622908
2.1439817e-08
-0.39622903
-7.5430079e-08
-7.4314324e-08
-0.33956273
3.3555445e-07
-0.33956297
2.7091577e-07
-0.33956269
-3.1200678e-07
-3.1344862e-07
-0.27125421
6.2672605e-07
-0.27125449
5.6112986e-07
-0.27125418
-6.1391245e-07
-5.9446149e-07
-0.20624574
1.0040302e-06
-0.20624609
9.2142114e-07
-0.20624572
-9.9987108e-07
-9.4748272e-07
-0.15406759
1.3610293e-06
-0.15406793
1.2707654e-06
-0.15406759
-1.3580945e-06
-1.2876592e-06
-0.11553426
1.5933091e-06
-0.11553449
1.5121686e-06
-0.11553428
-1.5842731e-06
-1.5169275e-06
-0.087939147
1.6763183e-06
-0.087939235
1.6137621e-06
-0.087939175
-1.6560771e-06
-1.6040626e-06
-0.068047255
1.6396769e-06
-0.068047224
1.5969257e-06
-0.068047282
-1.6055231e-06
-1.5716744e-06
-0.053197862
1.5306241e-06
-0.053197757
1.5044168e-06
-0.053197885
-1.4817298e-06
-1.4636609e-06
-0.041510748
1.3923503e-06
-0.04151061
1.3783174e-06
-0.041510765
-1.3291484e-06
-1.3229114e-06
-0.031766615
1.2559021e-06
-0.031766477
1.2504284e-06
-0.031766628
-1.179578e-06
-1.1817017e-06
-0.023214063
1.1396951e-06
-0.023213944
1.1405852e-06
-0.023214072
-1.0518285e-06
-1.0600974e-06
-0.015395639
1.0521702e-06
-0.01539555
1.0586314e-06
-0.015395646
-9.5446687e-07
-9.6800794e-07
-0.0080173572
9.9499683e-07
-0.0080173003
1.0074336e-06
-0.0080173645
-8.8917937e-07
-9.082668e-07
-0.00086043363
9.6603547e-07
-0.00086040734
9.8568831e-07
-0.00086044175
-8.5367541e-07
-8.7947843e-07
0.0062737327
9.6126836e-07
0.0062737318
9.9006048e-07
0.0062737229
-8.4380844e-07
-8.7819373e-07
0.013595178
9.7619646e-07
0.013595154
1.0166065e-06
0.013595166
-8.5493364e-07
-9.0034288e-07
0.021341903
1.0065703e-06
0.02134186
1.0615895e-06
0.021341888
-8.8265585e-07
-9.4205243e-07
0.029787529
1.048698e-06
0.02978747
1.1218487e-06
0.029787511
-9.2314632e-07
-1.0000878e-06
0.039244344
1.0994874e-06
0.039244271
1.1948795e-06
0.039244321
-9.7318346e-07
-1.0717723e-06
0.050064442
1.1563346e-06
0.050064358
1.2787443e-06
0.050064414
-1.0300489e-06
-1.1550682e-06
0.062640511
1.2169529e-06
0.062640418
1.3719022e-06
0.062640478
-1.0913549e-06
-1.2483425e-06
0.077407013
1.2791941e-06
0.077406912
1.4730199e-06
0.077406973
-1.1548634e-06
-1.3501749e-06
0.094841983
1.3408945e-06
0.094841875
1.5807713e-06
0.094841936
-1.2183321e-06
-1.4591742e-06
0.11546937
1.3997617e-06
0.11546926
1.6937095e-06
0.11546931
-1.2794002e-06
-1.5738228e-06
0.13986163
1.4533103e-06
0.13986151
1.8101411e-06
0.13986157
-1.3355224e-06
-1.6923567e-06
0.16864224
1.4988441e-06
0.16864212
1.9280239e-06
0.16864217
-1.3839505e-06
-1.8126803e-06
0.20248771
1.5334841e-06
0.20248759
2.0449272e-06
0.20248763
-1.4217602e-06
-1.9323135e-06
0.24212875
1.5542378e-06
0.24212864
2.1580049e-06
0.24212866
-1.4459192e-06
-2.0483662e-06
0.28835025
1.5581029e-06
0.28835015
2.2639961e-06
0.28835015
-1.4533897e-06
-2.1575391e-06
0.34198978
1.5422e-06
0.34198968
2.3592483e-06
0.34198966
-1.4412611e-06
-2.2561463e-06
0.40393427
1.5039292e-06
0.40393419
2.4397634e-06
0.40393415
-1.4069054e-06
-2.3401609e-06
0.47511492
1.4411426e-06
0.47511485
2.5012672e-06
0.47511479
-1.3481487e-06
-2.405284e-06
0.55649982
1.352324e-06
0.55649978
2.5393053e-06
0.55649969
-1.2634513e-06
-2.4470391e-06
0.64908461
1.2367681e-06
0.6490846
2.5493636e-06
0.64908449
-1.1520855e-06
-2.4608959e-06
0.75388086
1.0947461e-06
0.75388088
2.5270282e-06
0.75388074
-1.0143013e-06
-2.4424246e-06
0.87190231
9.2764658e-07
0.87190237
2.468173e-06
0.8719022
-8.5146581e-07
-2.3874852e-06
1.0041492
7.3807571e-07
1.0041493
2.3691847e-06
1.0041491
-6.6616436e-07
-2.2924517e-06
1.1515905
5.2990421e-07
1.1515907
2.2272211e-06
1.1515905
-4.6224622e-07
-2.1544692e-06
1.3151453
3.0824541e-07
1.3151454
2.0404988e-06
1.3151452
-2.4480279e-07
-1.9717417e-06
1.4956618
7.9352627e-08
1.495662
1.8086025e-06
1.4956617
-2.0064922e-08
-1.7438405e-06
1.6938968
-1.4957312e-07
1.693897
1.5328038e-06
1.6938968
2.0478941e-07
-1.4720226e-06
1.9104942
-3.7066878e-07
1.9104945
1.2163737e-06
1.9104942
4.2192041e-07
-1.159543e-06
2.1459636
-5.7578458e-07
2.145964
8.6486712e-07
2.1459638
6.2320123e-07
-8.1193909e-07
2.4006607
-7.5693661e-07
2.4006611
4.8635691e-07
2.4006609
8.0066931e-07
-4.372654e-07
2.6747676
-9.0681359e-07
2.674768
9.1587433e-08
2.6747679
9.4703112e-07
-4.624867e-08
2.9682771
-1.0193038e-06
2.9682775
-3.0598315e-07
2.9682774
1.0561859e-06
3.4766711e-07
3.2809779
-1.0899972e-06
3.2809783
-6.9028909e-07
3.2809782
1.1237231e-06
7.2842264e-07
3.6124444
-1.1166087e-06
3.6124448
-1.0429569e-06
3.6124448
1.1473393e-06
1.0776372e-06
3.9620298
-1.0992624e-06
3.9620301
-1.3438577e-06
3.9620301
1.1271155e-06
1.3751544e-06
4.328863
-1.0405796e-06
4.3288632
-1.5719968e-06
4.3288633
1.0655982e-06
1.5999246e-06
4.7118508
-9.4552379e-07
4.711851
-1.7068638e-06
4.7118511
9.676432e-07
1.731354e-06
5.1096844
-8.209917e-07
5.1096844
-1.730437e-06
5.1096846
8.4001454e-07
1.7513161e-06
5.5208505
-6.7520689e-07
5.5208504
-1.6301491e-06
5.5208505
6.9080751e-07
1.647142e-06
5.9436474
-5.1709696e-07
5.9436471
-1.4032965e-06
5.9436473
5.2888802e-07
1.416079e-06
6.3762055
-3.5602834e-07
6.3762051
-1.0635344e-06
6.3762053
3.6373618e-07
1.0718638e-06
6.8165116
-2.0249443e-07
6.8165112
-6.5002347e-07
6.8165114
2.063002e-07
6.5398673e-07
7.2624372
-7.16275e-08
7.2624368
-2.4213553e-07
7.2624369
7.2657905e-08
2.426247e-07
7.7117689
7.7117686
7.7117687
)
;

boundaryField
{
    movingWall
    {
        type            calculated;
        value           uniform 0;
    }
    CPLReceiveMD
    {
        type            calculated;
        value           uniform 0;
    }
    streamwiseIn
    {
        type            cyclic;
        value           nonuniform List<scalar> 
120
(
0.52159188
0.39622901
0.33956253
0.2712539
0.20624537
0.15406722
0.11553399
0.087939025
0.068047259
0.05319795
0.041510874
0.031766747
0.023214178
0.015395727
0.0080174148
0.00086046172
-0.0062737307
-0.013595198
-0.021341941
-0.029787581
-0.039244406
-0.050064512
-0.062640587
-0.077407093
-0.094842064
-0.11546945
-0.13986171
-0.16864231
-0.20248777
-0.2421288
-0.28835029
-0.3419898
-0.40393427
-0.47511489
-0.55649977
-0.64908454
-0.75388076
-0.87190219
-1.004149
-1.1515904
-1.3151451
-1.4956616
-1.6938966
-1.910494
-2.1459635
-2.4006605
-2.6747675
-2.968277
-3.2809778
-3.6124444
-3.9620298
-4.328863
-4.7118509
-5.1096845
-5.5208506
-5.9436475
-6.3762056
-6.8165118
-7.2624373
-7.7117689
0.52159185
0.39622903
0.33956248
0.2712539
0.20624537
0.15406725
0.11553405
0.08793909
0.068047315
0.053197993
0.041510905
0.031766768
0.023214192
0.015395736
0.008017422
0.00086046819
-0.0062737241
-0.01359519
-0.021341932
-0.029787571
-0.039244395
-0.0500645
-0.062640574
-0.077407078
-0.094842048
-0.11546943
-0.13986169
-0.16864229
-0.20248775
-0.24212878
-0.28835026
-0.34198976
-0.40393424
-0.47511486
-0.55649973
-0.6490845
-0.75388073
-0.87190215
-1.004149
-1.1515903
-1.315145
-1.4956615
-1.6938966
-1.9104939
-2.1459634
-2.4006605
-2.6747675
-2.968277
-3.2809778
-3.6124444
-3.9620298
-4.3288631
-4.7118509
-5.1096845
-5.5208506
-5.9436475
-6.3762056
-6.8165118
-7.2624373
-7.7117689
)
;
    }
    streamwiseOut
    {
        type            cyclic;
        value           nonuniform List<scalar> 
120
(
-0.52159188
-0.39622901
-0.33956253
-0.2712539
-0.20624537
-0.15406722
-0.11553399
-0.087939025
-0.068047259
-0.05319795
-0.041510874
-0.031766747
-0.023214178
-0.015395727
-0.0080174148
-0.00086046172
0.0062737307
0.013595198
0.021341941
0.029787581
0.039244406
0.050064512
0.062640587
0.077407093
0.094842064
0.11546945
0.13986171
0.16864231
0.20248777
0.2421288
0.28835029
0.3419898
0.40393427
0.47511489
0.55649977
0.64908454
0.75388076
0.87190219
1.004149
1.1515904
1.3151451
1.4956616
1.6938966
1.910494
2.1459635
2.4006605
2.6747675
2.968277
3.2809778
3.6124444
3.9620298
4.328863
4.7118509
5.1096845
5.5208506
5.9436475
6.3762056
6.8165118
7.2624373
7.7117689
-0.52159185
-0.39622903
-0.33956248
-0.2712539
-0.20624537
-0.15406725
-0.11553405
-0.08793909
-0.068047315
-0.053197993
-0.041510905
-0.031766768
-0.023214192
-0.015395736
-0.008017422
-0.00086046819
0.0062737241
0.01359519
0.021341932
0.029787571
0.039244395
0.0500645
0.062640574
0.077407078
0.094842048
0.11546943
0.13986169
0.16864229
0.20248775
0.24212878
0.28835026
0.34198976
0.40393424
0.47511486
0.55649973
0.6490845
0.75388073
0.87190215
1.004149
1.1515903
1.315145
1.4956615
1.6938966
1.9104939
2.1459634
2.4006605
2.6747675
2.968277
3.2809778
3.6124444
3.9620298
4.3288631
4.7118509
5.1096845
5.5208506
5.9436475
6.3762056
6.8165118
7.2624373
7.7117689
)
;
    }
    front
    {
        type            cyclic;
        value           nonuniform 0();
    }
    back
    {
        type            cyclic;
        value           nonuniform 0();
    }
    procBoundary1to0
    {
        type            processor;
        value           nonuniform List<scalar> 
240
(
-5.4378273e-10
4.5292094e-09
-4.3306512e-09
-5.5535254e-09
-4.92193e-09
2.8096528e-09
-1.3035778e-09
-3.0107769e-09
-9.1471984e-09
-5.2891269e-10
1.0431104e-09
-5.2977828e-10
-8.7164181e-09
-2.023072e-09
1.3960066e-09
7.2892944e-10
-6.8615664e-09
-2.3063264e-09
1.1913237e-09
1.302302e-09
-4.732776e-09
-1.7859202e-09
6.2878713e-10
1.3440211e-09
-3.0447368e-09
-1.0385152e-09
1.332711e-10
1.2080817e-09
-1.9122141e-09
-3.6944429e-10
-8.4601643e-11
1.075198e-09
-1.1913366e-09
1.2261272e-10
-1.6554266e-10
9.8155091e-10
-7.3128725e-10
4.3428806e-10
-1.6807249e-10
9.1058928e-10
-4.2831836e-10
6.0081105e-10
-1.3375993e-10
8.3955265e-10
-2.2045224e-10
6.6079806e-10
-8.4959415e-11
7.5427849e-10
-9.6644051e-11
6.474919e-10
-3.1333445e-11
6.5059664e-10
1.5821983e-11
5.8808746e-10
2.3578386e-11
5.3116645e-10
5.7627034e-11
5.0280387e-10
7.8711677e-11
4.0152343e-10
1.5548898e-10
4.0576642e-10
1.3370914e-10
2.6755117e-10
2.4383826e-10
3.0666479e-10
1.8827079e-10
1.3282485e-10
3.2555265e-10
2.1173726e-10
2.4191773e-10
2.2579421e-12
4.0180798e-10
1.2461119e-10
2.9430704e-10
-1.0930625e-10
4.7289573e-10
4.6761406e-11
3.4520629e-10
-2.5454568e-10
5.3839533e-10
-2.1380093e-11
3.9418628e-10
-3.6181004e-10
5.9770899e-10
-8.0038509e-11
4.4071725e-10
-4.5301327e-10
6.5023741e-10
-1.2976265e-10
4.8506829e-10
-5.3387928e-10
6.9544143e-10
-1.6755503e-10
5.2791113e-10
-6.058386e-10
7.3288655e-10
-2.0748951e-10
5.6955702e-10
-6.6912059e-10
7.6222156e-10
-2.3667921e-10
6.0954352e-10
-7.2362351e-10
7.8323593e-10
-2.5723723e-10
6.4755745e-10
-7.6918368e-10
7.9587788e-10
-2.7135659e-10
6.832778e-10
-8.0567106e-10
8.0023056e-10
-2.7989593e-10
7.1633786e-10
-8.3302389e-10
7.9649035e-10
-2.8320782e-10
7.4629618e-10
-8.5126063e-10
7.849497e-10
-2.8143298e-10
7.726193e-10
-8.6048117e-10
7.6598316e-10
-2.7461036e-10
7.9468564e-10
-8.6086487e-10
7.4003763e-10
-2.6271738e-10
8.1180164e-10
-8.5266879e-10
7.076266e-10
-2.4554487e-10
8.2322597e-10
-8.3622781e-10
6.6932727e-10
-2.2295332e-10
8.2819977e-10
-8.1195681e-10
6.2577832e-10
-1.9581046e-10
8.2597894e-10
-7.803554e-10
5.7767216e-10
-1.6335598e-10
8.1586585e-10
-7.4201314e-10
5.2575244e-10
-1.2562804e-10
7.9725235e-10
-6.976147e-10
4.7080719e-10
-8.2683824e-11
7.696611e-10
-6.4794298e-10
4.136578e-10
-3.4621226e-11
7.3278674e-10
-5.938797e-10
3.5514336e-10
1.8409508e-11
6.8653613e-10
-5.3640174e-10
2.9610065e-10
7.6196679e-11
6.3106634e-10
-4.765715e-10
2.3733996e-10
1.3846049e-10
5.6681955e-10
-4.1552061e-10
1.7961693e-10
2.048487e-10
4.9455327e-10
-3.5442601e-10
1.2360206e-10
2.7493373e-10
4.153651e-10
-2.9447837e-10
6.9848107e-11
3.4820885e-10
3.3070932e-10
-2.3684336e-10
1.8757502e-11
4.2407925e-10
2.4240372e-10
-1.8261695e-10
-2.9447986e-11
5.018398e-10
1.5261739e-10
-1.3277549e-10
-7.4753216e-11
5.806309e-10
6.384733e-11
-8.8131134e-11
-1.173638e-10
6.593506e-10
-2.1150294e-11
-4.9273468e-11
-1.5770212e-10
7.3651208e-10
-9.9469547e-11
-1.6520693e-11
-1.9637077e-10
8.1003981e-10
-1.6822935e-10
1.0146789e-11
-2.3406338e-10
8.7701486e-10
-2.2477014e-10
3.1180788e-11
-2.7140215e-10
9.3341565e-10
-2.6693749e-10
4.7604992e-11
-3.0868146e-10
9.739402e-10
-2.931863e-10
6.1221763e-11
-3.4552381e-10
9.921209e-10
-3.022809e-10
7.4848914e-11
-3.8052318e-10
9.8152071e-10
-2.9223857e-10
9.2101241e-11
-4.115401e-10
9.377813e-10
-2.5777101e-10
1.1612021e-10
-4.361647e-10
8.6202767e-10
-1.9595301e-10
1.4283773e-10
-4.0919072e-10
6.5864907e-10
-7.5982713e-11
1.5770887e-10
)
;
    }
    procBoundary1to0throughback
    {
        type            processorCyclic;
        value           nonuniform List<scalar> 
240
(
-1.2408034e-08
-8.7584053e-09
-8.2875162e-09
-7.0417211e-09
-5.7680819e-09
-4.8437861e-09
-4.1000634e-09
-3.418729e-09
-2.792316e-09
-2.2412962e-09
-1.7837837e-09
-1.4233212e-09
-1.1485659e-09
-9.4617863e-10
-8.0549711e-10
-7.1310409e-10
-6.5924181e-10
-6.3472692e-10
-6.31677e-10
-6.4351418e-10
-6.6480064e-10
-6.9120197e-10
-7.1928649e-10
-7.4636662e-10
-7.7037991e-10
-7.8977367e-10
-8.0343574e-10
-8.1065395e-10
-8.1101658e-10
-8.0434926e-10
-7.9066725e-10
-7.7013853e-10
-7.4305635e-10
-7.0982e-10
-6.7092188e-10
-6.2693956e-10
-5.7852029e-10
-5.2637477e-10
-4.7126676e-10
-4.1399992e-10
-3.5540057e-10
-2.9629623e-10
-2.374905e-10
-1.7973422e-10
-1.2369461e-10
-6.9921914e-11
-1.8816932e-11
2.9399792e-11
7.4713803e-11
1.1733138e-10
1.5767549e-10
1.9634877e-10
2.3404498e-10
2.7138644e-10
3.0866764e-10
3.4551121e-10
3.8051174e-10
4.1152978e-10
4.3615608e-10
4.0918583e-10
-7.9192094e-09
-5.1292331e-09
-8.646502e-10
1.0830998e-09
1.8107408e-09
1.6237393e-09
1.0616449e-09
4.5868228e-10
-4.1860194e-11
-3.9921258e-10
-6.1907608e-10
-7.2593674e-10
-7.4706687e-10
-7.0835598e-10
-6.3161018e-10
-5.3388302e-10
-4.2775215e-10
-3.2196821e-10
-2.2273556e-10
-1.3183933e-10
-5.0879332e-11
1.9801408e-11
8.0516331e-11
1.3201174e-10
1.7546892e-10
2.12412e-10
2.3496404e-10
2.5323104e-10
2.6545398e-10
2.7184519e-10
2.7256841e-10
2.6774241e-10
2.574456e-10
2.4173263e-10
2.1981138e-10
1.9337254e-10
1.6149633e-10
1.2421761e-10
8.1618312e-11
3.3819237e-11
-1.9010859e-11
-7.664573e-11
-1.387943e-10
-2.0509568e-10
-2.7511548e-10
-3.4834181e-10
-4.2417588e-10
-5.019096e-10
-5.8068079e-10
-6.5938589e-10
-7.3653671e-10
-8.1005688e-10
-8.7702651e-10
-9.3342344e-10
-9.7394509e-10
-9.9212398e-10
-9.8152236e-10
-9.3778202e-10
-8.62028e-10
-6.5864892e-10
3.4428542e-09
-6.262442e-10
-3.6968726e-09
-4.1807394e-09
-3.7493016e-09
-2.8919011e-09
-2.1106464e-09
-1.5301691e-09
-1.1275862e-09
-8.524709e-10
-6.6420267e-10
-5.3649946e-10
-4.5270503e-10
-4.0213178e-10
-3.767124e-10
-3.6991904e-10
-3.7651681e-10
-3.9233307e-10
-4.1440662e-10
-4.4068889e-10
-4.6960479e-10
-5.0001425e-10
-5.3148601e-10
-5.6404393e-10
-5.975647e-10
-6.3112592e-10
-6.6409202e-10
-6.9588024e-10
-7.2590054e-10
-7.535254e-10
-7.7806824e-10
-7.9878379e-10
-8.1487918e-10
-8.2553475e-10
-8.2993024e-10
-8.272757e-10
-8.1683815e-10
-7.9798225e-10
-7.7021007e-10
-7.3320066e-10
-6.8684913e-10
-6.3130385e-10
-5.6700055e-10
-4.946919e-10
-4.1547181e-10
-3.3079186e-10
-2.4246782e-10
-1.5266739e-10
-6.3886465e-11
2.1119436e-11
9.9444947e-11
1.6820946e-10
2.2475399e-10
2.6692423e-10
2.9317526e-10
3.022716e-10
2.9223042e-10
2.5776405e-10
1.9594739e-10
7.5979294e-11
2.9223479e-11
-2.1062083e-09
-4.131453e-09
-4.2018228e-09
-3.5387592e-09
-2.6441382e-09
-1.9097217e-09
-1.4326118e-09
-1.1583552e-09
-1.00434e-09
-9.0443424e-10
-8.1721472e-10
-7.2206499e-10
-6.1235569e-10
-4.8902035e-10
-3.5558258e-10
-2.1785648e-10
-8.0022177e-11
5.9017651e-11
1.975261e-10
2.9470418e-10
3.9148171e-10
4.8068001e-10
5.6122112e-10
6.3239464e-10
6.9377983e-10
7.4516397e-10
7.8648514e-10
8.1779509e-10
8.3923795e-10
8.5103499e-10
8.5347537e-10
8.4691172e-10
8.3176002e-10
8.0850274e-10
7.7769499e-10
7.399716e-10
6.9605387e-10
6.4675417e-10
5.9297776e-10
5.357202e-10
4.7605872e-10
4.1513658e-10
3.5413985e-10
2.9426632e-10
2.366871e-10
1.8250245e-10
1.3269213e-10
8.8070696e-11
4.9229982e-11
1.6489564e-11
-1.0168758e-11
-3.1196131e-11
-4.7615441e-11
-6.122872e-11
-7.4853087e-11
-9.2103156e-11
-1.161207e-10
-1.4283753e-10
-1.5770867e-10
)
;
    }
}


// ************************************************************************* //
