/*--------------------------------*- C++ -*----------------------------------*\
| =========                 |                                                 |
| \\      /  F ield         | OpenFOAM: The Open Source CFD Toolbox           |
|  \\    /   O peration     | Version:  3.0.x                                 |
|   \\  /    A nd           | Web:      www.OpenFOAM.org                      |
|    \\/     M anipulation  |                                                 |
\*---------------------------------------------------------------------------*/
FoamFile
{
    version     2.0;
    format      ascii;
    class       volScalarField;
    location    "400";
    object      p;
}
// * * * * * * * * * * * * * * * * * * * * * * * * * * * * * * * * * * * * * //

dimensions      [0 2 -2 0 0 0 0];

internalField   nonuniform List<scalar> 
960
(
1.9648557e-08
6.607872e-08
3.2736169e-08
-3.0469829e-09
1.4735725e-08
5.9159222e-08
2.0884635e-08
-5.0425803e-09
3.2052055e-08
5.7217182e-08
-9.8263722e-09
-2.1965693e-08
1.0148377e-08
2.9318885e-08
1.2838584e-08
-7.4101065e-09
-2.8756519e-09
4.250155e-09
1.9876698e-08
7.6909999e-09
-9.3599296e-09
-9.4853802e-09
2.5372891e-08
1.5011185e-08
-1.1315791e-08
-1.6203925e-08
2.5195515e-08
1.8113438e-08
-9.7595504e-09
-1.7439053e-08
2.2072813e-08
1.8529852e-08
-6.2678511e-09
-1.4872581e-08
1.9093104e-08
1.8156124e-08
-1.9835886e-09
-1.0023726e-08
1.8213419e-08
1.8669513e-08
2.5571929e-09
-3.8741798e-09
2.02594e-08
2.1036779e-08
7.179401e-09
2.9920867e-09
2.5291963e-08
2.5618385e-08
1.1976215e-08
1.0252946e-08
3.2932408e-08
3.2347066e-08
1.7074326e-08
1.7731713e-08
4.2582835e-08
4.0931639e-08
2.2556178e-08
2.5319071e-08
5.3622913e-08
5.0939973e-08
2.8432931e-08
3.2926627e-08
6.5492118e-08
6.1914737e-08
3.4647248e-08
4.0465368e-08
7.771557e-08
7.3427012e-08
4.1090315e-08
4.7837546e-08
8.9904743e-08
8.5098013e-08
4.7621044e-08
5.4939349e-08
1.0174953e-07
9.6606492e-08
5.4081434e-08
6.1672889e-08
1.130092e-07
1.0768484e-07
6.0314488e-08
6.7940163e-08
1.2350358e-07
1.1812621e-07
6.6172039e-08
7.3646801e-08
1.3310525e-07
1.2777507e-07
7.1522854e-08
7.8709329e-08
1.4173235e-07
1.3652204e-07
7.6258934e-08
8.3059198e-08
1.4934031e-07
1.4429853e-07
8.029982e-08
8.664601e-08
1.5591448e-07
1.5107085e-07
8.3594851e-08
8.9439733e-08
1.6146344e-07
1.5683424e-07
8.6123357e-08
9.1431733e-08
1.6601329e-07
1.6160713e-07
8.7893025e-08
9.2634535e-08
1.69603e-07
1.6542597e-07
8.8936768e-08
9.3080376e-08
1.7228074e-07
1.6834067e-07
8.9308522e-08
9.2818758e-08
1.7410101e-07
1.7041058e-07
8.9078464e-08
9.1913281e-08
1.7512237e-07
1.7170115e-07
8.8328095e-08
9.043806e-08
1.7540542e-07
1.7228106e-07
8.7145502e-08
8.8474038e-08
1.7501119e-07
1.7221972e-07
8.5621084e-08
8.6105429e-08
1.739996e-07
1.7158526e-07
8.3843887e-08
8.3416505e-08
1.7242804e-07
1.7044277e-07
8.1898658e-08
8.0488884e-08
1.7035027e-07
1.6885293e-07
7.9863622e-08
7.7399394e-08
1.6781545e-07
1.6687092e-07
7.7808998e-08
7.4218604e-08
1.6486754e-07
1.6454579e-07
7.5796188e-08
7.1010031e-08
1.6154512e-07
1.6192008e-07
7.3877567e-08
6.7830033e-08
1.5788163e-07
1.5902985e-07
7.2096834e-08
6.4728361e-08
1.5390612e-07
1.5590514e-07
7.0489794e-08
6.1749336e-08
1.4964455e-07
1.5257077e-07
6.9085462e-08
5.8933557e-08
1.4512161e-07
1.4904739e-07
6.7907331e-08
5.632e-08
1.4036289e-07
1.4535287e-07
6.697462e-08
5.3948312e-08
1.3539755e-07
1.4150376e-07
6.6303257e-08
5.1860966e-08
1.3026091e-07
1.3751686e-07
6.5906328e-08
5.0104866e-08
1.2499698e-07
1.3341061e-07
6.5793692e-08
4.8731771e-08
1.1966039e-07
1.2920635e-07
6.5970508e-08
4.779677e-08
1.1431708e-07
1.2492941e-07
6.6434512e-08
4.7353833e-08
1.0904347e-07
1.2061018e-07
6.7172139e-08
4.7447375e-08
1.0392317e-07
1.1628588e-07
6.8153901e-08
4.8098614e-08
9.9040926e-08
1.1200387e-07
6.9330019e-08
4.9285106e-08
9.447339e-08
1.0782901e-07
7.0628021e-08
5.0912036e-08
9.0276726e-08
1.0385841e-07
7.1954734e-08
5.2779762e-08
8.647184e-08
1.002429e-07
7.3204599e-08
5.4565051e-08
8.3031273e-08
9.7204764e-08
7.4275232e-08
5.5817132e-08
7.9873941e-08
9.5063369e-08
7.5086395e-08
5.5812742e-08
7.6870108e-08
9.4436573e-08
7.5563611e-08
5.3011205e-08
7.3960839e-08
9.6883883e-08
7.5708957e-08
4.6551337e-08
7.2111088e-08
1.0352856e-07
8.5147538e-10
5.9746917e-08
3.6936182e-08
4.1446268e-09
3.9165951e-10
4.0129941e-08
2.9581815e-08
1.4657211e-08
2.7161163e-08
4.1730067e-08
-3.8937288e-09
5.8870527e-11
1.3318222e-08
2.4579013e-08
1.0624694e-08
7.2434018e-09
3.6444736e-09
9.5644576e-09
1.5828867e-08
1.4700953e-08
-3.3826964e-09
1.6629316e-09
1.8247181e-08
1.6939853e-08
-7.8287436e-09
-3.3996261e-09
1.7661651e-08
1.8062461e-08
-9.2126607e-09
-5.66905e-09
1.5522362e-08
1.8508771e-08
-8.2077324e-09
-5.4553359e-09
1.3982771e-08
1.9060942e-08
-5.5662259e-09
-3.299394e-09
1.4550726e-08
2.0600644e-08
-1.7534647e-09
3.90918e-10
1.7861681e-08
2.3663888e-08
2.9689684e-09
5.2772749e-09
2.3915614e-08
2.8483596e-08
8.3927238e-09
1.1072374e-08
3.2323351e-08
3.5047412e-08
1.4381579e-08
1.7533662e-08
4.255298e-08
4.3141982e-08
2.0823882e-08
2.4452725e-08
5.4034999e-08
5.2485484e-08
2.7603802e-08
3.1646828e-08
6.6239132e-08
6.2745219e-08
3.4592698e-08
3.8951135e-08
7.8708032e-08
7.3576771e-08
4.1650558e-08
4.6218287e-08
9.1065245e-08
8.465091e-08
4.8631885e-08
5.3307284e-08
1.0301167e-07
9.566948e-08
5.5393271e-08
6.0082367e-08
1.1431811e-07
1.0637865e-07
6.1795805e-08
6.6418253e-08
1.2481691e-07
1.1656522e-07
6.7713492e-08
7.2206203e-08
1.343929e-07
1.260608e-07
7.3038182e-08
7.7353321e-08
1.4297404e-07
1.3474121e-07
7.7683537e-08
8.1785743e-08
1.5052359e-07
1.4252291e-07
8.1587853e-08
8.5451133e-08
1.5703242e-07
1.4935833e-07
8.4715488e-08
8.8320077e-08
1.6251248e-07
1.552308e-07
8.7056845e-08
9.0386238e-08
1.6699144e-07
1.6014921e-07
8.8626927e-08
9.1665293e-08
1.7050851e-07
1.6414292e-07
8.9462723e-08
9.2192808e-08
1.7311121e-07
1.6725687e-07
8.9619726e-08
9.2021303e-08
1.7485285e-07
1.6954723e-07
8.9167945e-08
9.121677e-08
1.7579061e-07
1.7107748e-07
8.8187697e-08
8.9854949e-08
1.7598371e-07
1.7191504e-07
8.6765508e-08
8.8017606e-08
1.7549204e-07
1.7212833e-07
8.4990331e-08
8.5789034e-08
1.7437463e-07
1.7178438e-07
8.2950239e-08
8.325294e-08
1.7268841e-07
1.709468e-07
8.0729681e-08
8.0489843e-08
1.7048697e-07
1.6967427e-07
7.8407366e-08
7.7575075e-08
1.6781973e-07
1.680194e-07
7.6054781e-08
7.4577414e-08
1.6473123e-07
1.6602804e-07
7.3735315e-08
7.1558397e-08
1.6126096e-07
1.6373904e-07
7.1503988e-08
6.8572316e-08
1.5744349e-07
1.6118432e-07
6.9407673e-08
6.5666852e-08
1.5330926e-07
1.5838949e-07
6.748577e-08
6.288436e-08
1.4888577e-07
1.5537473e-07
6.57712e-08
6.0263677e-08
1.4419937e-07
1.5215601e-07
6.4291583e-08
5.7842347e-08
1.3927744e-07
1.4874656e-07
6.3070402e-08
5.5659049e-08
1.34151e-07
1.4515843e-07
6.2127912e-08
5.3755896e-08
1.2885736e-07
1.4140411e-07
6.1481511e-08
5.2180149e-08
1.2344263e-07
1.3749791e-07
6.1145253e-08
5.0984699e-08
1.179637e-07
1.3345716e-07
6.1128213e-08
5.0226448e-08
1.12489e-07
1.2930327e-07
6.1431502e-08
4.9961534e-08
1.0709763e-07
1.2506283e-07
6.2043987e-08
5.0236161e-08
1.0187598e-07
1.2076946e-07
6.2937144e-08
5.1071586e-08
9.6911293e-08
1.1646782e-07
6.4060166e-08
5.2441308e-08
9.2281756e-08
1.1222215e-07
6.5337404e-08
5.4238547e-08
8.8042843e-08
1.0813299e-07
6.6671268e-08
5.6237815e-08
8.4211469e-08
1.0436173e-07
6.7953668e-08
5.8067547e-08
8.0753404e-08
1.0115203e-07
6.9088008e-08
5.9191186e-08
7.7587356e-08
9.8860821e-08
7.0015394e-08
5.8746957e-08
7.4631982e-08
9.8167746e-08
7.0692322e-08
5.496265e-08
7.1999581e-08
1.0075832e-07
7.1116071e-08
4.6770471e-08
7.0647065e-08
1.0788557e-07
1.2701465e-08
6.2407849e-08
4.2426585e-08
-1.5393571e-08
1.5375629e-08
5.6817463e-08
3.2793769e-08
-1.2662517e-08
4.117062e-08
5.6858764e-08
1.8094233e-09
-2.5139722e-08
2.1344086e-08
3.1078207e-08
2.196357e-08
-7.2008106e-09
9.6022821e-09
7.1503079e-09
2.7270898e-08
9.7949652e-09
5.097337e-11
-6.384354e-09
3.0365503e-08
1.7736587e-08
-4.8221964e-09
-1.3415882e-08
2.8340642e-08
2.0776093e-08
-5.6564014e-09
-1.5179917e-08
2.3864301e-08
2.0802592e-08
-3.9713732e-09
-1.3175185e-08
1.993345e-08
1.9937918e-08
-9.1645547e-10
-8.8246885e-09
1.8427404e-08
1.9980993e-08
2.8387114e-09
-3.076035e-09
2.00963e-08
2.1950261e-08
7.0130776e-09
3.4893948e-09
2.4927806e-08
2.6220165e-08
1.1582535e-08
1.0535759e-08
3.2487933e-08
3.2721573e-08
1.6593261e-08
1.7868207e-08
4.2129837e-08
4.1153102e-08
2.2071463e-08
2.5360698e-08
5.3201653e-08
5.1057912e-08
2.7989884e-08
3.2910747e-08
6.5122439e-08
6.1964848e-08
3.4266238e-08
4.0419125e-08
7.7404256e-08
7.3434719e-08
4.0776188e-08
4.7776898e-08
8.96507e-08
8.5080787e-08
4.7369639e-08
5.4876763e-08
1.0154744e-07
9.6576086e-08
5.3885026e-08
6.1614083e-08
1.1285172e-07
1.0764988e-07
6.0164344e-08
6.7888133e-08
1.2338301e-07
1.1809098e-07
6.6059439e-08
7.3602393e-08
1.3301429e-07
1.2774207e-07
7.1439842e-08
7.8672397e-08
1.4166467e-07
1.3649258e-07
7.6198679e-08
8.3029112e-08
1.492906e-07
1.4427315e-07
8.0256709e-08
8.6621919e-08
1.5587841e-07
1.5104957e-07
8.3564421e-08
8.9420724e-08
1.6143756e-07
1.5681678e-07
8.6102156e-08
9.1416926e-08
1.6599491e-07
1.6159306e-07
8.7878443e-08
9.2623134e-08
1.6959008e-07
1.6541482e-07
8.8926866e-08
9.307169e-08
1.7227174e-07
1.6833195e-07
8.9301886e-08
9.2812206e-08
1.7409481e-07
1.7040385e-07
8.907408e-08
9.1908383e-08
1.7511814e-07
1.7169602e-07
8.8325242e-08
9.043443e-08
1.7540256e-07
1.7227718e-07
8.7143678e-08
8.847137e-08
1.7500928e-07
1.7221683e-07
8.5619941e-08
8.6103483e-08
1.7399834e-07
1.7158312e-07
8.3843189e-08
8.3415097e-08
1.7242722e-07
1.704412e-07
8.1898245e-08
8.0487872e-08
1.7034975e-07
1.6885178e-07
7.9863389e-08
7.7398672e-08
1.6781512e-07
1.668701e-07
7.7808876e-08
7.4218094e-08
1.6486734e-07
1.645452e-07
7.5796131e-08
7.1009672e-08
1.61545e-07
1.6191966e-07
7.3877548e-08
6.7829783e-08
1.5788156e-07
1.5902956e-07
7.2096835e-08
6.4728188e-08
1.5390608e-07
1.5590494e-07
7.0489804e-08
6.1749218e-08
1.4964453e-07
1.5257063e-07
6.9085476e-08
5.8933476e-08
1.451216e-07
1.4904729e-07
6.7907345e-08
5.6319947e-08
1.4036289e-07
1.453528e-07
6.6974632e-08
5.3948276e-08
1.3539755e-07
1.4150371e-07
6.6303268e-08
5.1860943e-08
1.3026091e-07
1.3751683e-07
6.5906337e-08
5.0104851e-08
1.2499699e-07
1.3341059e-07
6.5793699e-08
4.8731762e-08
1.1966039e-07
1.2920634e-07
6.5970513e-08
4.7796765e-08
1.1431708e-07
1.249294e-07
6.6434516e-08
4.735383e-08
1.0904347e-07
1.2061018e-07
6.7172142e-08
4.7447374e-08
1.0392317e-07
1.1628588e-07
6.8153903e-08
4.8098613e-08
9.9040928e-08
1.1200387e-07
6.9330022e-08
4.9285105e-08
9.4473391e-08
1.0782901e-07
7.0628023e-08
5.0912035e-08
9.0276727e-08
1.0385841e-07
7.1954735e-08
5.2779762e-08
8.6471842e-08
1.002429e-07
7.32046e-08
5.4565051e-08
8.3031274e-08
9.7204764e-08
7.4275233e-08
5.5817132e-08
7.9873941e-08
9.5063368e-08
7.5086397e-08
5.5812742e-08
7.6870109e-08
9.4436572e-08
7.5563612e-08
5.3011205e-08
7.396084e-08
9.6883882e-08
7.5708958e-08
4.6551337e-08
7.211109e-08
1.0352855e-07
1.2351176e-08
5.7063365e-08
3.7570286e-08
-3.1756768e-09
8.1718075e-09
3.8682765e-08
3.0746506e-08
8.1518744e-09
3.260225e-08
4.1680898e-08
-2.5131622e-09
-4.860088e-09
1.7233803e-08
2.5955799e-08
1.235915e-08
4.3952362e-09
6.5759496e-09
1.2002513e-08
1.7567861e-08
1.3756836e-08
-1.0193219e-09
4.7456435e-09
2.0072993e-08
1.7496983e-08
-5.9564707e-09
-6.3677657e-11
1.9424244e-08
1.9619948e-08
-7.753212e-09
-2.3821594e-09
1.7116469e-08
2.0618761e-08
-7.1015595e-09
-2.4157521e-09
1.5352611e-08
2.1374702e-08
-4.7744988e-09
-6.1679789e-10
1.5677059e-08
2.2875636e-08
-1.2099555e-09
2.6735878e-09
1.8751481e-08
2.5751637e-08
3.3161732e-09
7.1636551e-09
2.4595263e-08
3.0307947e-08
8.5934676e-09
1.2592511e-08
3.2825247e-08
3.6583362e-08
1.4479745e-08
1.8732379e-08
4.2912883e-08
4.439781e-08
2.0854797e-08
2.5380202e-08
5.4286354e-08
5.3487117e-08
2.7594245e-08
3.2352196e-08
6.6410377e-08
6.3527037e-08
3.4561858e-08
3.9479352e-08
7.8822022e-08
7.4175308e-08
4.1611478e-08
4.6607442e-08
9.1139514e-08
8.5101043e-08
4.8592762e-08
5.3590658e-08
1.0305922e-07
9.6002446e-08
5.5358573e-08
6.0285672e-08
1.1434827e-07
1.0662105e-07
6.176733e-08
6.6562237e-08
1.2483602e-07
1.1673893e-07
6.7691487e-08
7.2306776e-08
1.3440523e-07
1.2618327e-07
7.3022065e-08
7.7422539e-08
1.4298224e-07
1.3482613e-07
7.7672356e-08
8.1832636e-08
1.5052928e-07
1.4258075e-07
8.1580563e-08
8.5482356e-08
1.5703656e-07
1.4939696e-07
8.4711107e-08
8.8340464e-08
1.6251564e-07
1.5525603e-07
8.7054532e-08
9.0399247e-08
1.6699395e-07
1.6016527e-07
8.8626007e-08
9.1673362e-08
1.7051056e-07
1.641528e-07
8.9462681e-08
9.2197631e-08
1.7311289e-07
1.6726269e-07
8.9620191e-08
9.2024038e-08
1.7485424e-07
1.6955044e-07
8.9168659e-08
9.1218196e-08
1.7579174e-07
1.7107906e-07
8.8188493e-08
8.985558e-08
1.7598463e-07
1.7191564e-07
8.6766284e-08
8.8017776e-08
1.7549277e-07
1.7212837e-07
8.4991031e-08
8.5788953e-08
1.7437522e-07
1.7178413e-07
8.2950838e-08
8.3252736e-08
1.7268886e-07
1.7094642e-07
8.0730174e-08
8.0489594e-08
1.7048732e-07
1.6967386e-07
7.8407759e-08
7.7574823e-08
1.6781999e-07
1.6801901e-07
7.6055086e-08
7.4577182e-08
1.6473142e-07
1.6602769e-07
7.3735546e-08
7.1558194e-08
1.6126109e-07
1.6373874e-07
7.1504159e-08
6.8572144e-08
1.5744359e-07
1.6118407e-07
6.9407796e-08
6.5666711e-08
1.5330933e-07
1.5838929e-07
6.7485857e-08
6.2884246e-08
1.4888582e-07
1.5537457e-07
6.5771259e-08
6.0263586e-08
1.441994e-07
1.5215588e-07
6.4291623e-08
5.7842276e-08
1.3927746e-07
1.4874646e-07
6.3070427e-08
5.5658994e-08
1.3415101e-07
1.4515836e-07
6.2127927e-08
5.3755853e-08
1.2885736e-07
1.4140406e-07
6.1481519e-08
5.2180116e-08
1.2344263e-07
1.3749786e-07
6.1145256e-08
5.0984674e-08
1.1796369e-07
1.3345713e-07
6.1128213e-08
5.0226429e-08
1.12489e-07
1.2930325e-07
6.1431501e-08
4.996152e-08
1.0709763e-07
1.2506281e-07
6.2043985e-08
5.023615e-08
1.0187597e-07
1.2076945e-07
6.2937141e-08
5.1071578e-08
9.6911289e-08
1.1646781e-07
6.4060164e-08
5.2441301e-08
9.2281753e-08
1.1222214e-07
6.5337402e-08
5.4238542e-08
8.8042841e-08
1.0813298e-07
6.6671266e-08
5.6237811e-08
8.4211467e-08
1.0436173e-07
6.7953667e-08
5.8067544e-08
8.0753402e-08
1.0115202e-07
6.9088007e-08
5.9191183e-08
7.7587354e-08
9.8860819e-08
7.0015393e-08
5.8746955e-08
7.4631981e-08
9.8167745e-08
7.0692322e-08
5.4962648e-08
7.1999581e-08
1.0075832e-07
7.1116071e-08
4.6770469e-08
7.0647064e-08
1.0788557e-07
)
;

boundaryField
{
    movingWall
    {
        type            zeroGradient;
    }
    CPLReceiveMD
    {
        type            zeroGradient;
    }
    streamwiseIn
    {
        type            cyclic;
    }
    streamwiseOut
    {
        type            cyclic;
    }
    front
    {
        type            cyclic;
    }
    back
    {
        type            cyclic;
    }
}


// ************************************************************************* //
