/*--------------------------------*- C++ -*----------------------------------*\
| =========                 |                                                 |
| \\      /  F ield         | OpenFOAM: The Open Source CFD Toolbox           |
|  \\    /   O peration     | Version:  3.0.x                                 |
|   \\  /    A nd           | Web:      www.OpenFOAM.org                      |
|    \\/     M anipulation  |                                                 |
\*---------------------------------------------------------------------------*/
FoamFile
{
    version     2.0;
    format      ascii;
    class       volScalarField;
    location    "400";
    object      sigmazz;
}
// * * * * * * * * * * * * * * * * * * * * * * * * * * * * * * * * * * * * * //

dimensions      [0 2 -2 0 0 0 0];

internalField   nonuniform List<scalar> 
960
(
2.0628917e-09
6.7114898e-10
-1.2438604e-09
-4.6090522e-10
-4.9037476e-09
-3.8061579e-09
4.3051048e-09
3.8795209e-09
2.8091709e-09
2.7737487e-09
-3.5476044e-09
-3.089997e-09
-3.8568579e-09
-3.1496201e-09
3.6121012e-09
2.9384684e-09
-6.0798172e-10
-3.7626203e-10
5.7365582e-10
4.2960577e-10
-1.0999232e-09
-7.4657403e-10
1.1692163e-09
8.273342e-10
-9.3949589e-10
-8.382856e-10
9.8044431e-10
9.5102101e-10
-7.7011896e-10
-7.831414e-10
8.8466872e-10
9.2278208e-10
-6.8077616e-10
-7.5022461e-10
8.5612153e-10
9.1054878e-10
-7.1215267e-10
-8.0116123e-10
9.2203751e-10
9.7277679e-10
-5.8690741e-10
-7.1982539e-10
8.1070128e-10
8.9186206e-10
-5.5205448e-10
-7.057485e-10
7.717869e-10
8.6742693e-10
-6.681988e-10
-7.1493222e-10
8.6729061e-10
8.5680229e-10
-6.2608148e-10
-7.7194098e-10
7.9197861e-10
8.8611214e-10
-6.6272913e-10
-7.7961965e-10
7.8893121e-10
8.6137845e-10
-6.9003749e-10
-7.5915263e-10
7.7462939e-10
8.0732953e-10
-7.3830368e-10
-8.5210923e-10
7.8261777e-10
8.6791815e-10
-8.3741263e-10
-8.6909956e-10
8.449439e-10
8.5544811e-10
-7.8706936e-10
-9.4686415e-10
7.6258768e-10
9.0777278e-10
-9.2943926e-10
-9.8805114e-10
8.7833084e-10
9.2797787e-10
-9.2891188e-10
-1.1034491e-09
8.5672401e-10
1.0268131e-09
-9.9585275e-10
-1.1704445e-09
9.0800265e-10
1.0815425e-09
-1.0033138e-09
-1.1705398e-09
9.0488739e-10
1.0734817e-09
-9.3486845e-10
-1.3048528e-09
8.304763e-10
1.2034183e-09
-9.9844044e-10
-1.3319313e-09
8.9212017e-10
1.2294801e-09
-1.0730787e-09
-1.3467551e-09
9.6823823e-10
1.2461728e-09
-1.0422442e-09
-1.448935e-09
9.4164188e-10
1.3526077e-09
-1.1263006e-09
-1.4099593e-09
1.032052e-09
1.3197605e-09
-1.1049983e-09
-1.5603369e-09
1.0186087e-09
1.4776388e-09
-1.09318e-09
-1.5682843e-09
1.0155932e-09
1.4939841e-09
-9.8504612e-10
-1.659384e-09
9.1670667e-10
1.5939394e-09
-1.2300249e-09
-1.1733811e-09
1.1709519e-09
1.1168611e-09
-1.2787356e-09
-2.0032007e-09
1.2285935e-09
1.955341e-09
-2.4823969e-10
-1.7152255e-09
2.0641147e-10
1.6754861e-09
-3.6133299e-10
-1.4268783e-09
3.2699411e-10
1.3945055e-09
-1.6204162e-09
-2.255861e-09
1.5926015e-09
2.2299487e-09
-6.9776876e-10
-1.9913961e-09
6.754357e-10
1.970943e-09
-9.2147171e-10
-1.751567e-09
9.0355742e-10
1.7355324e-09
-1.1797164e-09
-2.6546522e-09
1.1651894e-09
2.642008e-09
-3.5897719e-10
-2.4904811e-09
3.4688318e-10
2.4802579e-09
-6.7264834e-10
-1.2682757e-09
6.6214792e-10
1.2596034e-09
-1.0036622e-09
-2.3262559e-09
9.9406206e-10
2.3183967e-09
-1.3427533e-09
-1.2360892e-09
1.3335283e-09
1.2284597e-09
-5.6942436e-10
-1.3367754e-09
5.6022669e-10
1.328963e-09
-8.9035929e-10
-1.5295184e-09
8.8101733e-10
1.521287e-09
-1.1823703e-09
-1.8255238e-09
1.1728704e-09
1.816804e-09
-3.2155566e-10
-2.2363476e-09
3.1200725e-10
2.2272113e-09
-5.1269198e-10
-1.6640629e-09
5.0327423e-10
1.6546837e-09
-6.328831e-10
-2.3388666e-09
6.2377872e-10
2.32947e-09
4.383855e-10
-2.0509085e-09
-4.470564e-10
2.0417077e-09
-6.2079195e-10
-1.9149098e-09
6.1256542e-10
1.9060501e-09
-4.8136517e-10
-1.9278714e-09
4.7348813e-10
1.9193938e-09
-2.6148858e-10
-2.0717432e-09
2.5383542e-10
2.0635804e-09
1.8693003e-11
-1.1936554e-09
-2.6120184e-11
1.1856678e-09
-7.8376335e-10
-1.4334767e-09
7.7682089e-10
1.4255455e-09
-4.957345e-10
-1.5601206e-09
4.8975898e-10
1.5521036e-09
8.3095481e-10
-1.37776e-09
-8.3589161e-10
1.3699795e-09
-1.7860472e-10
-4.8460153e-10
1.987069e-10
4.7730884e-10
-1.6316052e-10
-2.6189651e-10
1.8159469e-10
2.5700987e-10
-2.2036915e-10
-1.7260771e-09
1.9820367e-10
1.7190103e-09
1.4642379e-09
9.5412456e-10
-1.4616324e-09
-9.8580428e-10
-4.9152445e-09
-3.8391791e-09
4.6280579e-09
3.980639e-09
2.9740424e-09
2.5764659e-09
-3.038407e-09
-2.7414911e-09
-3.8615958e-09
-3.4690901e-09
3.9191109e-09
3.3680183e-09
-4.6439268e-10
-4.6931293e-10
4.6968329e-10
5.9711027e-10
-9.7960953e-10
-7.8141259e-10
1.0223859e-09
9.0406564e-10
-8.2418999e-10
-8.1626905e-10
8.7846412e-10
9.5561353e-10
-6.9614083e-10
-7.4106864e-10
7.9881112e-10
8.985974e-10
-6.372987e-10
-7.0873854e-10
7.8205718e-10
8.8081411e-10
-6.0567531e-10
-6.7161836e-10
7.7731711e-10
8.4931673e-10
-6.0103671e-10
-6.041701e-10
7.8153674e-10
7.7668062e-10
-5.7383749e-10
-7.1215247e-10
7.4503701e-10
8.6826363e-10
-5.8314989e-10
-7.2787336e-10
7.3241568e-10
8.5869964e-10
-7.6235875e-10
-7.8720422e-10
8.8218743e-10
8.8787256e-10
-6.8489049e-10
-7.9428733e-10
7.7094318e-10
8.625178e-10
-7.0819534e-10
-7.7150605e-10
7.5925067e-10
8.0679458e-10
-7.5252008e-10
-9.7237433e-10
7.6983045e-10
9.7612251e-10
-8.4816025e-10
-8.7573527e-10
8.3465742e-10
8.5062719e-10
-7.9493623e-10
-1.0627195e-09
7.5459121e-10
1.012275e-09
-9.3499338e-10
-1.1027187e-09
8.7232858e-10
1.0310425e-09
-9.3266867e-10
-1.1061345e-09
8.5239366e-10
1.0176961e-09
-9.9828867e-10
-1.1723436e-09
9.0503302e-10
1.0716704e-09
-1.0048687e-09
-1.1719377e-09
9.029987e-10
1.0633414e-09
-1.0468833e-09
-1.3059358e-09
9.4038583e-10
1.1933979e-09
-1.1102799e-09
-1.3327901e-09
1.0026823e-09
1.2198586e-09
-9.6308208e-10
-1.4583673e-09
8.5740245e-10
1.3480797e-09
-1.0434597e-09
-1.449367e-09
9.4218239e-10
1.3442104e-09
-1.0169293e-09
-1.4101186e-09
9.219991e-10
1.3120192e-09
-9.9605004e-10
-1.5601636e-09
9.0888874e-10
1.4704993e-09
-1.0956168e-09
-1.5677181e-09
1.0171524e-09
1.4873539e-09
-9.8788441e-10
-1.5474171e-09
9.1859262e-10
1.4767518e-09
-1.2332179e-09
-1.1718864e-09
1.1731737e-09
1.1109121e-09
-1.7266547e-10
-8.9163692e-10
1.2160017e-10
8.4000551e-10
-2.519659e-10
-1.7127016e-09
2.0932843e-10
1.66979e-09
-3.6523883e-10
-1.4238364e-09
3.3025947e-10
1.3888141e-09
-1.624455e-09
-1.1427563e-09
1.5962045e-09
1.1146497e-09
-7.0190475e-10
-1.987375e-09
6.7935403e-10
1.9651277e-09
-9.256798e-10
-1.7471046e-09
9.0775869e-10
1.7296353e-09
-1.1839832e-09
-2.649793e-09
1.1696311e-09
2.6360444e-09
-3.6329963e-10
-2.4852786e-09
3.5151222e-10
2.4742638e-09
-6.7702994e-10
-1.2627923e-09
6.6690048e-10
1.2536339e-09
-1.0081103e-09
-2.3205636e-09
9.9886387e-10
2.3125243e-09
-1.3472739e-09
-1.2302686e-09
1.3382933e-09
1.2227729e-09
-5.7401445e-10
-1.3309167e-09
5.6485744e-10
1.3235639e-09
-8.9499791e-10
-1.5237194e-09
8.8540537e-10
1.5162843e-09
-7.744414e-11
-1.8198906e-09
6.7333168e-11
1.8123056e-09
-3.260851e-10
-1.1214312e-09
3.1553003e-10
1.1137558e-09
-5.16954e-10
-1.6590952e-09
5.0615338e-10
1.6514642e-09
-6.3663828e-10
-1.2248377e-09
6.2586424e-10
1.2173999e-09
-6.7410295e-10
-2.047039e-09
6.6364641e-10
2.0398961e-09
-6.2250693e-10
-8.0216574e-10
6.126193e-10
7.9532261e-10
-4.8145565e-10
-8.158855e-10
4.7230192e-10
8.0923432e-10
-1.3691559e-09
-9.6059615e-10
1.3607883e-09
9.5394056e-10
2.277229e-11
-1.1930525e-09
-3.0432073e-11
1.1861446e-09
3.3201774e-10
-3.2472589e-10
-3.3922572e-10
3.1724384e-10
6.2188932e-10
-4.5348428e-10
-6.2917551e-10
4.449213e-10
-2.6949867e-10
-1.3865287e-09
2.6248558e-10
1.3761507e-09
-1.6869945e-10
-4.9482245e-10
1.7495018e-10
4.8204863e-10
-1.596179e-10
-1.3931249e-09
1.618559e-10
1.3852656e-09
-2.2633045e-10
-1.7521115e-09
2.0116344e-10
1.7537376e-09
1.3868867e-09
6.3226944e-10
-1.0695179e-09
-4.2719868e-10
-4.4027109e-09
-3.7577721e-09
4.44185e-09
3.9519696e-09
3.6713672e-09
2.8911962e-09
-3.4549837e-09
-3.0047634e-09
-3.4089806e-09
-3.0152678e-09
3.6855521e-09
3.0136387e-09
-4.5518404e-10
-3.0342808e-10
6.1336878e-10
4.9135525e-10
-1.0715886e-09
-6.9657054e-10
1.1827933e-09
8.5388361e-10
-9.233109e-10
-8.0937998e-10
9.8111616e-10
9.6254485e-10
-7.8872567e-10
-7.6911145e-10
8.684057e-10
9.2361949e-10
-7.0400032e-10
-7.4601959e-10
8.167019e-10
9.050389e-10
-7.6208188e-10
-8.035335e-10
8.9839312e-10
9.6352944e-10
-6.3679497e-10
-7.264182e-10
7.8436508e-10
8.8074561e-10
-5.9902364e-10
-7.1466575e-10
7.453915e-10
8.5593073e-10
-7.1044679e-10
-7.2470031e-10
8.4254243e-10
8.4571779e-10
-6.6242197e-10
-7.8151519e-10
7.6993935e-10
8.7578795e-10
-6.9295408e-10
-7.8835359e-10
7.7014315e-10
8.5222663e-10
-7.1450909e-10
-7.6678136e-10
7.5911331e-10
7.9964045e-10
-7.5767423e-10
-8.5857462e-10
7.7011593e-10
8.6163997e-10
-8.5245373e-10
-8.744424e-10
8.350767e-10
8.5042588e-10
-7.9855885e-10
-9.5123763e-10
7.5493394e-10
9.0378229e-10
-9.3809243e-10
-9.9161381e-10
8.7248102e-10
9.2477583e-10
-9.3534589e-10
-1.1063029e-09
8.5231286e-10
1.0242439e-09
-1.0005786e-09
-1.1727091e-09
9.0471803e-10
1.0795073e-09
-1.006745e-09
-1.1723217e-09
9.0247072e-10
1.0718741e-09
-9.3733341e-10
-1.3062484e-09
8.2871762e-10
1.2021473e-09
-1.0001938e-09
-1.3330214e-09
8.9085313e-10
1.2284756e-09
-1.0743135e-09
-1.3476039e-09
9.673339e-10
1.2453798e-09
-1.0431058e-09
-1.4495944e-09
9.4100183e-10
1.3519819e-09
-1.126897e-09
-1.4104696e-09
1.0316026e-09
1.3192686e-09
-1.1054077e-09
-1.5607304e-09
1.0182954e-09
1.4772531e-09
-1.0934589e-09
-1.5685868e-09
1.0153759e-09
1.4936823e-09
-9.8523494e-10
-1.6596157e-09
9.1655668e-10
1.5937048e-09
-1.2301521e-09
-1.173558e-09
1.1708486e-09
1.1166801e-09
-1.2788209e-09
-2.0033345e-09
1.2285223e-09
1.9552015e-09
-2.4829672e-10
-1.7153265e-09
2.0636225e-10
1.6753796e-09
-3.6137078e-10
-1.4269543e-09
3.2695969e-10
1.3944248e-09
-1.6204414e-09
-2.2559174e-09
1.5925774e-09
2.2298874e-09
-6.9778617e-10
-1.9914382e-09
6.7541877e-10
1.970897e-09
-9.2148369e-10
-1.7515982e-09
9.0354506e-10
1.7354982e-09
-1.1797245e-09
-2.6546753e-09
1.1651797e-09
2.6419828e-09
-3.5898277e-10
-2.4904981e-09
3.4687585e-10
2.4802393e-09
-6.7265218e-10
-1.268288e-09
6.6214228e-10
1.25959e-09
-1.003665e-09
-2.326265e-09
9.9405792e-10
2.3183869e-09
-1.3427552e-09
-1.236096e-09
1.3335252e-09
1.2284523e-09
-5.6942551e-10
-1.3367803e-09
5.6022358e-10
1.328958e-09
-8.9036025e-10
-1.5295218e-09
8.8101463e-10
1.521284e-09
-1.1823711e-09
-1.8255262e-09
1.1728685e-09
1.8168015e-09
-3.2155651e-10
-2.2363497e-09
3.1200611e-10
2.2272097e-09
-5.1269244e-10
-1.6640642e-09
5.0327335e-10
1.6546827e-09
-6.3288325e-10
-2.3388677e-09
6.2377761e-10
2.3294693e-09
4.3838503e-10
-2.0509094e-09
-4.4705746e-10
2.0417075e-09
-6.207926e-10
-1.9149101e-09
6.1256481e-10
1.90605e-09
-4.8136581e-10
-1.9278715e-09
4.7348763e-10
1.9193938e-09
-2.6148926e-10
-2.0717433e-09
2.5383501e-10
2.0635804e-09
1.8692474e-11
-1.1936553e-09
-2.612034e-11
1.1856682e-09
-7.8376366e-10
-1.4334766e-09
7.7682092e-10
1.4255458e-09
-4.9573452e-10
-1.5601206e-09
4.897592e-10
1.5521029e-09
8.309551e-10
-1.3777604e-09
-8.3589111e-10
1.3699782e-09
-1.786041e-10
-4.8460184e-10
1.9870753e-10
4.7730771e-10
-1.6315983e-10
-2.618965e-10
1.8159529e-10
2.5700898e-10
-2.2036868e-10
-1.7260773e-09
1.9820407e-10
1.7190098e-09
1.514082e-09
1.0106478e-09
-1.3829078e-09
-9.4784707e-10
-4.8592796e-09
-3.8095557e-09
4.6870077e-09
3.9946824e-09
3.0293457e-09
2.5589927e-09
-2.9895336e-09
-2.7143828e-09
-3.7883216e-09
-3.4645895e-09
3.9751778e-09
3.3607986e-09
-3.8879551e-10
-4.6163767e-10
5.2013668e-10
5.86075e-10
-9.140739e-10
-7.6673325e-10
1.0725364e-09
8.9803523e-10
-7.6807728e-10
-8.0689951e-10
9.2216434e-10
9.6820874e-10
-6.473156e-10
-7.2806351e-10
8.383596e-10
9.1842477e-10
-5.9688e-10
-6.8345109e-10
8.1642055e-10
8.9455528e-10
-5.7330158e-10
-6.4710041e-10
8.0582916e-10
8.6570407e-10
-5.7636021e-10
-5.8175419e-10
8.0430164e-10
7.9375764e-10
-5.5608809e-10
-6.9258694e-10
7.6253737e-10
8.8464277e-10
-5.7092145e-10
-7.1142584e-10
7.4540507e-10
8.7350744e-10
-7.5446571e-10
-7.7381373e-10
8.9149868e-10
9.0063751e-10
-6.8022545e-10
-7.8368668e-10
7.7734839e-10
8.7311475e-10
-7.0578398e-10
-7.6333888e-10
7.6347455e-10
8.1533197e-10
-7.5159071e-10
-9.6623115e-10
7.7249079e-10
9.828187e-10
-8.4812963e-10
-8.7122144e-10
8.3624264e-10
8.557457e-10
-7.953903e-10
-1.0595043e-09
7.5547079e-10
1.0160847e-09
-9.356554e-10
-1.1004976e-09
8.7276913e-10
1.0338012e-09
-9.3336627e-10
-1.1046422e-09
8.5257942e-10
1.0196372e-09
-9.9892555e-10
-1.1713851e-09
9.0508444e-10
1.0729938e-09
-1.0053998e-09
-1.1713526e-09
9.0298998e-10
1.064211e-09
-1.0472953e-09
-1.3056062e-09
9.4035905e-10
1.1939411e-09
-1.1105798e-09
-1.3326307e-09
1.0026601e-09
1.2201736e-09
-9.6328632e-10
-1.4583159e-09
8.5739396e-10
1.3482407e-09
-1.043587e-09
-1.4493804e-09
9.4218807e-10
1.3442714e-09
-1.0169987e-09
-1.4101672e-09
9.2201721e-10
1.3120184e-09
-9.9607848e-10
-1.5602278e-09
9.0891566e-10
1.4704641e-09
-1.095618e-09
-1.5677862e-09
1.0171844e-09
1.4873012e-09
-9.8786891e-10
-1.5474822e-09
9.186263e-10
1.4766935e-09
-1.2331934e-09
-1.1719445e-09
1.1732067e-09
1.1108555e-09
-1.7263741e-10
-8.9168654e-10
1.2163074e-10
8.3995332e-10
-2.5193769e-10
-1.7127426e-09
2.0935561e-10
1.6697451e-09
-3.6521276e-10
-1.423869e-09
3.3028293e-10
1.3887768e-09
-1.6244321e-09
-1.1427822e-09
1.5962236e-09
1.1146189e-09
-7.0188523e-10
-1.9873952e-09
6.7936956e-10
1.9651035e-09
-9.2566344e-10
-1.7471197e-09
9.0777125e-10
1.7296164e-09
-1.1839697e-09
-2.6498044e-09
1.16964e-09
2.63603e-09
-3.6328903e-10
-2.4852869e-09
3.5151882e-10
2.474253e-09
-6.7702169e-10
-1.2627984e-09
6.6690568e-10
1.2536262e-09
-1.008104e-09
-2.320568e-09
9.9886717e-10
2.3125183e-09
-1.3472693e-09
-1.2302721e-09
1.3382955e-09
1.2227689e-09
-5.7401056e-10
-1.3309188e-09
5.6485911e-10
1.323561e-09
-8.9499496e-10
-1.5237208e-09
8.8540587e-10
1.5162819e-09
-7.7442017e-11
-1.8198918e-09
6.7333072e-11
1.8123048e-09
-3.2608376e-10
-1.1214319e-09
3.1553033e-10
1.1137552e-09
-5.1695344e-10
-1.6590958e-09
5.0615327e-10
1.6514637e-09
-6.3663732e-10
-1.2248386e-09
6.2586385e-10
1.2174004e-09
-6.7410228e-10
-2.0470393e-09
6.6364613e-10
2.0398966e-09
-6.2250688e-10
-8.021655e-10
6.1261893e-10
7.9532229e-10
-4.8145573e-10
-8.1588608e-10
4.7230155e-10
8.0923447e-10
-1.369156e-09
-9.6059669e-10
1.3607881e-09
9.5394112e-10
2.2772147e-11
-1.1930526e-09
-3.0432179e-11
1.1861447e-09
3.3201775e-10
-3.2472587e-10
-3.3922565e-10
3.1724377e-10
6.2188961e-10
-4.5348426e-10
-6.2917518e-10
4.4492062e-10
-2.6949808e-10
-1.3865287e-09
2.6248613e-10
1.3761499e-09
-1.6869868e-10
-4.9482238e-10
1.749508e-10
4.8204795e-10
-1.5961715e-10
-1.3931249e-09
1.6185647e-10
1.3852647e-09
-2.2632995e-10
-1.7521116e-09
2.0116381e-10
1.753737e-09
)
;

boundaryField
{
    movingWall
    {
        type            calculated;
        value           nonuniform List<scalar> 
16
(
-2.7737604e-10
-2.8590425e-10
-2.7737565e-10
-2.8590381e-10
-1.0549232e-09
-1.070727e-09
-1.0549234e-09
-1.0707272e-09
2.409036e-10
2.5012243e-10
2.4090401e-10
2.5012284e-10
1.043426e-09
1.0756435e-09
1.0434256e-09
1.075643e-09
)
;
    }
    CPLReceiveMD
    {
        type            calculated;
        value           nonuniform List<scalar> 
16
(
-2.996491e-10
-1.391454e-09
-1.489965e-09
-1.3456167e-09
-2.0914544e-09
-2.0806263e-09
-2.1251554e-09
-2.0079173e-09
1.909955e-09
1.6602807e-09
2.1095873e-09
1.7620135e-09
2.1381267e-09
1.7488079e-09
2.1990961e-09
1.7903593e-09
)
;
    }
    streamwiseIn
    {
        type            cyclic;
    }
    streamwiseOut
    {
        type            cyclic;
    }
    front
    {
        type            cyclic;
    }
    back
    {
        type            cyclic;
    }
}


// ************************************************************************* //
