/*--------------------------------*- C++ -*----------------------------------*\
| =========                 |                                                 |
| \\      /  F ield         | OpenFOAM: The Open Source CFD Toolbox           |
|  \\    /   O peration     | Version:  3.0.x                                 |
|   \\  /    A nd           | Web:      www.OpenFOAM.org                      |
|    \\/     M anipulation  |                                                 |
\*---------------------------------------------------------------------------*/
FoamFile
{
    version     2.0;
    format      ascii;
    class       volScalarField;
    location    "400";
    object      sigmayy;
}
// * * * * * * * * * * * * * * * * * * * * * * * * * * * * * * * * * * * * * //

dimensions      [0 2 -2 0 0 0 0];

internalField   nonuniform List<scalar> 
960
(
1.6102039e-08
2.181077e-08
-1.8183331e-08
-2.2291152e-08
1.9013491e-09
8.3079863e-09
-1.1744653e-09
-8.6220508e-09
8.7722319e-09
1.2664479e-08
-7.6325034e-09
-1.2197508e-08
-8.0119451e-09
-5.5200829e-09
8.3291414e-09
5.823867e-09
-8.9228636e-09
-9.6397588e-09
8.9311572e-09
9.4677215e-09
-1.4157848e-09
-2.7856865e-09
1.2998783e-09
2.5988419e-09
3.2853371e-09
2.6701676e-09
-3.3053024e-09
-2.8979929e-09
6.3493151e-09
6.361574e-09
-6.504558e-09
-6.6317875e-09
7.7667942e-09
8.3630637e-09
-8.0443299e-09
-8.6694819e-09
7.7912144e-09
8.9326038e-09
-8.1440758e-09
-9.2596583e-09
7.2019303e-09
8.7704836e-09
-7.5909223e-09
-9.0981753e-09
6.1276512e-09
8.0764521e-09
-6.5174361e-09
-8.3842693e-09
4.6900358e-09
7.0956462e-09
-5.0472126e-09
-7.365337e-09
3.2693604e-09
5.8773926e-09
-3.5680844e-09
-6.0935291e-09
1.6740238e-09
4.5603963e-09
-1.9003104e-09
-4.7135966e-09
6.0705983e-11
3.1871229e-09
-2.0965055e-10
-3.2749279e-09
-1.510029e-09
1.7078928e-09
1.4368191e-09
-1.7325375e-09
-2.9784763e-09
4.0970475e-10
2.9749801e-09
-3.7676838e-10
-4.0795743e-09
-7.6683972e-10
4.1370933e-09
8.4952597e-10
-5.1276852e-09
-1.6835673e-09
5.2361492e-09
1.8072824e-09
-5.7955096e-09
-2.4517793e-09
5.9443927e-09
2.6078647e-09
-6.3281269e-09
-2.9838468e-09
6.5070437e-09
3.1638622e-09
-6.6466283e-09
-3.3167794e-09
6.8457531e-09
3.5126296e-09
-6.7839184e-09
-3.7140904e-09
6.9942922e-09
3.9183156e-09
-6.9899262e-09
-3.9929591e-09
7.2036689e-09
4.1989193e-09
-7.173717e-09
-4.2963031e-09
7.384156e-09
4.4982899e-09
-7.2355245e-09
-4.7577758e-09
7.4372467e-09
4.9510671e-09
-7.400375e-09
-5.1686705e-09
7.5892235e-09
5.3495588e-09
-7.4430446e-09
-5.8665775e-09
7.616061e-09
6.0323504e-09
-7.4667249e-09
-6.516464e-09
7.6220584e-09
6.6653517e-09
-7.3501539e-09
-7.3329032e-09
7.4869406e-09
7.4640107e-09
-7.525952e-09
-7.6391995e-09
7.6441708e-09
7.7524043e-09
-7.4285434e-09
-9.3082607e-09
7.5288773e-09
9.4041038e-09
-6.1608634e-09
-9.8842265e-09
6.2445542e-09
9.9637976e-09
-5.9346825e-09
-1.0460932e-08
6.0033843e-09
1.0525746e-08
-6.7452001e-09
-1.2131656e-08
6.8008467e-09
1.2183531e-08
-5.2618173e-09
-1.2660592e-08
5.3064959e-09
1.2701535e-08
-4.8144131e-09
-1.3140255e-08
4.8502511e-09
1.3172351e-08
-4.2979251e-09
-1.4662768e-08
4.3269862e-09
1.4688076e-08
-2.6107241e-09
-1.4991113e-08
2.6349175e-09
1.5011573e-08
-1.9833824e-09
-1.4106845e-08
2.0043874e-09
1.41242e-08
-1.3213552e-09
-1.5319566e-08
1.3405586e-09
1.5335292e-08
-6.4317323e-10
-1.417122e-08
6.6162573e-10
1.4186485e-08
1.1388489e-09
-1.3969849e-08
-1.1204517e-09
1.3985477e-08
1.7807186e-09
-1.3584363e-08
-1.7620333e-09
1.3600829e-08
2.3647405e-09
-1.2992353e-08
-2.3457398e-09
1.3009794e-08
3.9717916e-09
-1.2170705e-08
-3.9526939e-09
1.2188979e-08
4.3540643e-09
-9.9865948e-09
-4.3352281e-09
1.0005354e-08
4.5944466e-09
-8.6369875e-09
-4.5762372e-09
8.6557814e-09
5.7805898e-09
-5.8842235e-09
-5.7632475e-09
5.9026256e-09
4.5702644e-09
-2.8275408e-09
-4.5538109e-09
2.8452604e-09
4.291411e-09
5.2706254e-10
-4.2756564e-09
-5.1010727e-10
3.8516579e-09
4.1434865e-09
-3.8363511e-09
-4.1271608e-09
3.2912946e-09
9.0446713e-09
-3.27644e-09
-9.0286962e-09
1.567527e-09
1.2852994e-08
-1.5536419e-09
-1.2837132e-08
9.9146917e-10
1.6434962e-08
-9.7951815e-10
-1.6418928e-08
1.6667708e-09
1.9398921e-08
-1.6568974e-09
-1.938336e-08
3.5720933e-10
2.0941285e-08
-3.9741415e-10
-2.0926699e-08
3.2632083e-10
1.7167195e-08
-3.6318965e-10
-1.7157421e-08
4.4073819e-10
1.0109515e-08
-3.9640747e-10
-1.0095381e-08
1.7245402e-08
2.1558383e-08
-1.7349467e-08
-2.1482966e-08
1.3287669e-09
7.7379492e-09
-8.8449759e-10
-8.0125229e-09
8.2580437e-09
1.3106184e-08
-8.2560777e-09
-1.2783629e-08
-8.2875065e-09
-5.3340763e-09
8.05448e-09
5.5117831e-09
-9.1804677e-09
-9.6402695e-09
9.0674713e-09
9.3479192e-09
-1.5495582e-09
-2.7595456e-09
1.3776139e-09
2.4704293e-09
3.1759405e-09
2.6369855e-09
-3.3538744e-09
-2.9614987e-09
6.2577567e-09
6.2837348e-09
-6.5163731e-09
-6.6428669e-09
7.7124358e-09
8.2861169e-09
-8.0411805e-09
-8.670215e-09
7.8553634e-09
8.9810002e-09
-8.2262231e-09
-9.370993e-09
7.1852357e-09
8.8495296e-09
-7.5647457e-09
-9.2234339e-09
6.1357925e-09
8.0700003e-09
-6.4899312e-09
-8.4055936e-09
4.8254056e-09
7.1055275e-09
-5.1308361e-09
-7.3855714e-09
3.1882055e-09
5.8949561e-09
-3.4314815e-09
-6.1104005e-09
1.702745e-09
4.5794559e-09
-1.8763727e-09
-4.7264713e-09
8.5511923e-11
3.2038365e-09
-1.8790258e-10
-3.2821114e-09
-1.4899791e-09
1.609444e-09
1.455735e-09
-1.6224064e-09
-2.9630213e-09
4.1836798e-10
2.990682e-09
-3.7191542e-10
-4.0681561e-09
-8.714247e-10
4.1495518e-09
9.6980654e-10
-5.1196413e-09
-1.78962e-09
5.2456047e-09
1.9313749e-09
-5.7901643e-09
-2.4482437e-09
5.9512223e-09
2.6241621e-09
-6.3247881e-09
-2.9813755e-09
6.5116698e-09
3.1821997e-09
-6.6446045e-09
-3.3149371e-09
6.8485885e-09
3.5318951e-09
-6.8935293e-09
-3.7126063e-09
7.1066638e-09
3.9376281e-09
-7.0996683e-09
-3.9917272e-09
7.3149236e-09
4.2176427e-09
-7.0612414e-09
-4.4062917e-09
7.2726044e-09
4.626975e-09
-7.2333841e-09
-4.7571562e-09
7.4359062e-09
4.9676005e-09
-7.2864633e-09
-5.1685247e-09
7.4762703e-09
5.3648573e-09
-7.3282313e-09
-5.8670466e-09
7.5024914e-09
6.0464999e-09
-7.4619695e-09
-6.5176829e-09
7.6188345e-09
6.6785214e-09
-7.3445662e-09
-7.2240305e-09
7.4830896e-09
7.3654544e-09
-7.5196331e-09
-7.6422328e-09
7.6396675e-09
7.7642578e-09
-6.3120541e-09
-8.2027394e-09
6.4141386e-09
8.3060634e-09
-6.1534494e-09
-9.8892968e-09
6.2386861e-09
9.975168e-09
-5.9268999e-09
-1.0467033e-08
5.9968277e-09
1.0537114e-08
-6.7371445e-09
-1.1029197e-08
6.7936213e-09
1.1085438e-08
-5.2535618e-09
-1.2668643e-08
5.2986445e-09
1.2713158e-08
-4.8060093e-09
-1.3149186e-08
4.8418374e-09
1.318414e-08
-4.2894007e-09
-1.4672491e-08
4.3180943e-09
1.4699999e-08
-2.602086e-09
-1.5001521e-08
2.6256532e-09
1.5023559e-08
-1.9746243e-09
-1.4117814e-08
1.9948777e-09
1.4136137e-08
-1.3124628e-09
-1.5330953e-08
1.3309517e-09
1.5347035e-08
-6.3413497e-10
-1.4182863e-08
6.5209336e-10
1.4197857e-08
1.148027e-09
-1.3981567e-08
-1.1297148e-09
1.3996274e-08
1.7899943e-09
-1.3595962e-08
-1.7708105e-09
1.3610833e-08
3.4835673e-09
-1.300362e-08
-3.4633462e-09
1.301879e-08
3.9808495e-09
-1.1071858e-08
-3.9597399e-09
1.108721e-08
4.3625876e-09
-9.9965303e-09
-4.3409866e-09
1.0011793e-08
4.6019563e-09
-7.5363651e-09
-4.5804084e-09
7.5512411e-09
4.6768859e-09
-5.8919627e-09
-4.6559729e-09
5.9062487e-09
4.573694e-09
-1.7243487e-09
-4.5539187e-09
1.738035e-09
4.2915916e-09
1.6317711e-09
-4.273284e-09
-1.6184687e-09
2.7383119e-09
5.2498727e-09
-2.7215766e-09
-5.2365615e-09
3.2831358e-09
9.0434657e-09
-3.2678162e-09
-9.0296499e-09
2.664645e-09
1.3964173e-08
-2.650229e-09
-1.3949209e-08
2.0849017e-09
1.755037e-08
-2.0703295e-09
-1.7533244e-08
5.3899727e-10
1.9416459e-08
-5.2497149e-10
-1.9395703e-08
3.3739871e-10
2.0961727e-08
-3.4990073e-10
-2.0936179e-08
3.1923555e-10
1.6100971e-08
-3.2371213e-10
-1.6085252e-08
4.5266074e-10
1.0161584e-08
-4.0232701e-10
-1.0164836e-08
1.7874599e-08
2.1917623e-08
-1.8066107e-08
-2.226787e-08
1.3663517e-09
8.3510668e-09
-9.7422806e-10
-8.572123e-09
7.3926446e-09
1.2587828e-08
-7.4882731e-09
-1.2195168e-08
-8.712686e-09
-5.6506242e-09
8.33186e-09
5.7724016e-09
-9.1558943e-09
-9.7385392e-09
8.899883e-09
9.4280347e-09
-1.4977146e-09
-2.849446e-09
1.2526255e-09
2.5601441e-09
3.2030812e-09
2.6223717e-09
-3.3806232e-09
-2.926347e-09
6.3216866e-09
6.3295309e-09
-6.5549033e-09
-6.6476149e-09
7.7848911e-09
8.3435875e-09
-8.0834493e-09
-8.6758563e-09
7.8062399e-09
8.922979e-09
-8.1457706e-09
-9.2591475e-09
7.2287235e-09
8.7681969e-09
-7.5824595e-09
-9.0932333e-09
6.1605459e-09
8.0790976e-09
-6.5029616e-09
-8.3771672e-09
4.724616e-09
7.1011319e-09
-5.0298141e-09
-7.3572162e-09
3.3020628e-09
5.8840885e-09
-3.5501679e-09
-6.0848399e-09
1.7030787e-09
4.5671747e-09
-1.8835743e-09
-4.7052381e-09
8.5442947e-11
3.1934254e-09
-1.9489061e-10
-3.2676924e-09
-1.4896397e-09
1.7134749e-09
1.4493381e-09
-1.7265788e-09
-2.9620959e-09
4.1443493e-10
2.9852835e-09
-3.7203537e-10
-4.0666823e-09
-7.6284521e-10
4.1453765e-09
8.5325237e-10
-5.1177087e-09
-1.6801995e-09
5.2426843e-09
1.8103068e-09
-5.7879043e-09
-2.4490215e-09
5.9494629e-09
2.6103262e-09
-6.322412e-09
-2.9816227e-09
6.5109165e-09
3.1658151e-09
-6.6423916e-09
-3.3150106e-09
6.8486682e-09
3.5141718e-09
-6.7808154e-09
-3.7126924e-09
6.9964575e-09
3.9195383e-09
-6.987679e-09
-3.9918566e-09
7.2052581e-09
4.1998904e-09
-7.1721082e-09
-4.2954362e-09
7.3853094e-09
4.4990622e-09
-7.2343851e-09
-4.7570947e-09
7.4380755e-09
4.9516832e-09
-7.3995755e-09
-5.1681372e-09
7.589813e-09
5.3500485e-09
-7.4424893e-09
-5.8661615e-09
7.6164765e-09
6.0327394e-09
-7.466343e-09
-6.5161396e-09
7.6223491e-09
6.6656612e-09
-7.3498936e-09
-7.3326513e-09
7.4871424e-09
7.4642548e-09
-7.525776e-09
-7.639004e-09
7.64431e-09
7.7525952e-09
-7.4284254e-09
-9.3081113e-09
7.5289729e-09
9.4042535e-09
-6.1607849e-09
-9.8841119e-09
6.2446195e-09
9.9639136e-09
-5.9346312e-09
-1.0460845e-08
6.0034293e-09
1.0525836e-08
-6.7451664e-09
-1.213159e-08
6.8008773e-09
1.21836e-08
-5.261794e-09
-1.2660543e-08
5.3065163e-09
1.2701588e-08
-4.8143972e-09
-1.3140218e-08
4.8502652e-09
1.3172391e-08
-4.2979144e-09
-1.466274e-08
4.326997e-09
1.4688106e-08
-2.6107166e-09
-1.4991092e-08
2.6349251e-09
1.5011596e-08
-1.9833772e-09
-1.4106831e-08
2.0043928e-09
1.4124216e-08
-1.3213512e-09
-1.5319556e-08
1.340562e-09
1.5335304e-08
-6.4317029e-10
-1.4171212e-08
6.6162796e-10
1.4186494e-08
1.1388508e-09
-1.3969843e-08
-1.1204488e-09
1.3985484e-08
1.7807204e-09
-1.3584359e-08
-1.7620306e-09
1.3600832e-08
2.3647423e-09
-1.299235e-08
-2.3457382e-09
1.3009798e-08
3.9717934e-09
-1.2170703e-08
-3.9526933e-09
1.2188982e-08
4.3540652e-09
-9.9865935e-09
-4.3352277e-09
1.0005355e-08
4.5944467e-09
-8.6369863e-09
-4.576236e-09
8.6557824e-09
5.7805904e-09
-5.8842224e-09
-5.763246e-09
5.9026256e-09
4.5702652e-09
-2.8275406e-09
-4.5538101e-09
2.8452604e-09
4.2914116e-09
5.2706261e-10
-4.2756557e-09
-5.1010727e-10
3.8516585e-09
4.1434865e-09
-3.8363504e-09
-4.1271608e-09
3.291295e-09
9.0446713e-09
-3.2764396e-09
-9.0286971e-09
1.567527e-09
1.2852994e-08
-1.5536417e-09
-1.2837133e-08
9.9146885e-10
1.6434962e-08
-9.7951818e-10
-1.6418927e-08
1.6667701e-09
1.9398922e-08
-1.6568978e-09
-1.9383358e-08
3.5720831e-10
2.0941285e-08
-3.9741474e-10
-2.0926698e-08
3.2631979e-10
1.7167195e-08
-3.6319027e-10
-1.715742e-08
4.4073747e-10
1.0109515e-08
-3.96408e-10
-1.009538e-08
1.7241424e-08
2.1413177e-08
-1.7404918e-08
-2.1550837e-08
1.3438721e-09
7.6926675e-09
-8.6922454e-10
-8.0712671e-09
8.2619703e-09
1.3105235e-08
-8.2148314e-09
-1.278696e-08
-8.3347029e-09
-5.2976514e-09
8.0789867e-09
5.5296701e-09
-9.2183849e-09
-9.6016624e-09
9.0581178e-09
9.3895434e-09
-1.5867299e-09
-2.7321579e-09
1.3561965e-09
2.5133641e-09
3.1375535e-09
2.6398466e-09
-3.376342e-09
-2.9166408e-09
6.2154762e-09
6.2744156e-09
-6.5442884e-09
-6.6110635e-09
7.6712012e-09
8.2789988e-09
-8.0710545e-09
-8.6612602e-09
7.8173116e-09
8.9683667e-09
-8.2547907e-09
-9.370978e-09
7.1528072e-09
8.8342484e-09
-7.5901801e-09
-9.229372e-09
6.1100996e-09
8.0541997e-09
-6.5112585e-09
-8.4149404e-09
4.8058338e-09
7.0905839e-09
-5.147902e-09
-7.3963557e-09
3.1741237e-09
5.8816486e-09
-3.444571e-09
-6.1211884e-09
1.693223e-09
4.5681167e-09
-1.8859465e-09
-4.7364183e-09
7.950247e-11
3.1945337e-09
-1.9460363e-10
-3.290822e-09
-1.4934239e-09
1.6020309e-09
1.451247e-09
-1.6297399e-09
-2.9647037e-09
4.126012e-10
2.9878227e-09
-3.7788612e-10
-4.0687038e-09
-8.7575221e-10
4.1478372e-09
9.6509858e-10
-5.1195184e-09
-1.7927801e-09
5.2446572e-09
1.9277703e-09
-5.7896952e-09
-2.4505077e-09
5.9507609e-09
2.6214763e-09
-6.324185e-09
-2.9829439e-09
6.5114968e-09
3.1802487e-09
-6.6439962e-09
-3.3159952e-09
6.8485717e-09
3.5305132e-09
-6.8929871e-09
-3.7132949e-09
7.1067201e-09
3.9366789e-09
-7.0992218e-09
-3.9921524e-09
7.3150014e-09
4.2170142e-09
-7.0608955e-09
-4.4065353e-09
7.2726764e-09
4.6265775e-09
-7.233132e-09
-4.7572783e-09
7.4359625e-09
4.9673652e-09
-7.2862904e-09
-5.1685691e-09
7.4763068e-09
5.3647329e-09
-7.3281213e-09
-5.8670442e-09
7.5025095e-09
6.0464469e-09
-7.4619065e-09
-6.5176542e-09
7.6188378e-09
6.6785141e-09
-7.3445368e-09
-7.2239888e-09
7.4830823e-09
7.3654729e-09
-7.5196261e-09
-7.6421872e-09
7.6396534e-09
7.7642887e-09
-6.3120613e-09
-8.2026954e-09
6.4141208e-09
8.3061007e-09
-6.1534646e-09
-9.8892572e-09
6.238667e-09
9.9752043e-09
-5.9269182e-09
-1.0466999e-08
5.9968087e-09
1.0537147e-08
-6.7371632e-09
-1.1029168e-08
6.7936044e-09
1.1085468e-08
-5.2535795e-09
-1.266862e-08
5.2986295e-09
1.2713183e-08
-4.8060254e-09
-1.3149168e-08
4.8418239e-09
1.318416e-08
-4.2894147e-09
-1.4672477e-08
4.3180846e-09
1.4700015e-08
-2.6020973e-09
-1.5001511e-08
2.6256453e-09
1.5023571e-08
-1.974633e-09
-1.4117807e-08
1.9948705e-09
1.4136146e-08
-1.3124692e-09
-1.5330948e-08
1.3309468e-09
1.5347043e-08
-6.341392e-10
-1.4182859e-08
6.5208965e-10
1.4197862e-08
1.148023e-09
-1.3981565e-08
-1.1297183e-09
1.3996279e-08
1.7899915e-09
-1.3595961e-08
-1.770812e-09
1.3610837e-08
3.4835656e-09
-1.3003618e-08
-3.4633468e-09
1.3018792e-08
3.9808489e-09
-1.1071858e-08
-3.9597414e-09
1.1087211e-08
4.3625879e-09
-9.9965301e-09
-4.3409873e-09
1.0011794e-08
4.6019554e-09
-7.536364e-09
-4.5804084e-09
7.5512402e-09
4.6768852e-09
-5.8919625e-09
-4.6559728e-09
5.9062477e-09
4.5736942e-09
-1.7243494e-09
-4.5539184e-09
1.7380358e-09
4.2915918e-09
1.631772e-09
-4.2732836e-09
-1.6184688e-09
2.738312e-09
5.2498736e-09
-2.7215762e-09
-5.2365625e-09
3.2831359e-09
9.0434657e-09
-3.2678159e-09
-9.0296499e-09
2.6646447e-09
1.3964173e-08
-2.6502288e-09
-1.3949209e-08
2.084901e-09
1.755037e-08
-2.0703297e-09
-1.7533243e-08
5.3899627e-10
1.9416459e-08
-5.2497193e-10
-1.9395702e-08
3.3739754e-10
2.0961727e-08
-3.4990127e-10
-2.0936178e-08
3.1923448e-10
1.6100971e-08
-3.237126e-10
-1.6085251e-08
4.5266002e-10
1.0161584e-08
-4.023275e-10
-1.0164835e-08
)
;

boundaryField
{
    movingWall
    {
        type            calculated;
        value           nonuniform List<scalar> 
16
(
5.5475197e-10
5.7180834e-10
5.5475141e-10
5.7180775e-10
8.767207e-09
8.7988145e-09
8.7672074e-09
8.7988149e-09
-4.8180734e-10
-5.0024498e-10
-4.8180789e-10
-5.0024556e-10
-8.7442124e-09
-8.8086473e-09
-8.7442119e-09
-8.8086469e-09
)
;
    }
    CPLReceiveMD
    {
        type            calculated;
        value           nonuniform List<scalar> 
16
(
2.082712e-08
2.2956786e-08
2.3628302e-08
2.2960821e-08
2.7335977e-08
2.7627885e-08
2.7432472e-08
2.7450308e-08
-2.4490962e-08
-2.3593293e-08
-2.4424317e-08
-2.3694761e-08
-2.7489216e-08
-2.695219e-08
-2.7520459e-08
-2.702725e-08
)
;
    }
    streamwiseIn
    {
        type            cyclic;
    }
    streamwiseOut
    {
        type            cyclic;
    }
    front
    {
        type            cyclic;
    }
    back
    {
        type            cyclic;
    }
}


// ************************************************************************* //
