/*--------------------------------*- C++ -*----------------------------------*\
| =========                 |                                                 |
| \\      /  F ield         | OpenFOAM: The Open Source CFD Toolbox           |
|  \\    /   O peration     | Version:  3.0.x                                 |
|   \\  /    A nd           | Web:      www.OpenFOAM.org                      |
|    \\/     M anipulation  |                                                 |
\*---------------------------------------------------------------------------*/
FoamFile
{
    version     2.0;
    format      ascii;
    class       volScalarField;
    location    "400";
    object      sigmaxx;
}
// * * * * * * * * * * * * * * * * * * * * * * * * * * * * * * * * * * * * * //

dimensions      [0 2 -2 0 0 0 0];

internalField   nonuniform List<scalar> 
960
(
-1.816493e-08
-2.2481919e-08
1.9427191e-08
2.2752058e-08
3.0023985e-09
-4.5018284e-09
-3.1306395e-09
4.74253e-09
-1.1581403e-08
-1.5438228e-08
1.1180108e-08
1.5287505e-08
1.1868803e-08
8.669703e-09
-1.1941243e-08
-8.7623354e-09
9.5308453e-09
1.0016021e-08
-9.5048131e-09
-9.8973273e-09
2.5157081e-09
3.5322605e-09
-2.4690946e-09
-3.4261761e-09
-2.3458412e-09
-1.831882e-09
2.324858e-09
1.9469719e-09
-5.5791961e-09
-5.5784326e-09
5.6198893e-09
5.7090054e-09
-7.086018e-09
-7.6128391e-09
7.1882084e-09
7.7589331e-09
-7.0790617e-09
-8.1314426e-09
7.2220383e-09
8.2868815e-09
-6.6150229e-09
-8.0506582e-09
6.780221e-09
8.2063133e-09
-5.5755968e-09
-7.3707036e-09
5.7456492e-09
7.5168424e-09
-4.021837e-09
-6.3807139e-09
4.179922e-09
6.5085347e-09
-2.6432789e-09
-5.1054516e-09
2.7761058e-09
5.2074169e-09
-1.0112947e-09
-3.7807766e-09
1.1113792e-09
3.8522182e-09
6.2933151e-10
-2.4279703e-09
-5.6497884e-10
2.4675984e-09
2.2483327e-09
-8.5578358e-10
-2.2194368e-09
8.6461934e-10
3.8158889e-09
4.5939481e-10
-3.819924e-09
-4.7867973e-10
4.8666436e-09
1.7137039e-09
-4.899681e-09
-1.7572987e-09
6.0571244e-09
2.6716184e-09
-6.11448e-09
-2.7352603e-09
6.7244215e-09
3.5552284e-09
-6.8011168e-09
-3.6346777e-09
7.3239796e-09
4.1542914e-09
-7.4150463e-09
-4.2454047e-09
7.6499421e-09
4.4873192e-09
-7.7506405e-09
-4.5861113e-09
7.7187869e-09
5.0189432e-09
-7.8247685e-09
-5.1217339e-09
7.9883666e-09
5.3248904e-09
-8.095789e-09
-5.4283994e-09
8.2467957e-09
5.6430582e-09
-8.3523942e-09
-5.7444627e-09
8.2777687e-09
6.2067108e-09
-8.3788886e-09
-6.3036748e-09
8.5266756e-09
6.5786297e-09
-8.6212755e-09
-6.6693193e-09
8.5480428e-09
7.4269144e-09
-8.6346697e-09
-7.5099892e-09
8.5599049e-09
8.0847482e-09
-8.6376516e-09
-8.1593359e-09
8.3352001e-09
8.9922872e-09
-8.4036473e-09
-9.0579501e-09
8.7559768e-09
8.8125806e-09
-8.8151227e-09
-8.8692654e-09
8.707279e-09
1.1311461e-08
-8.7574708e-09
-1.1359445e-08
6.4091031e-09
1.1599452e-08
-6.4509657e-09
-1.1639284e-08
6.2960155e-09
1.1887811e-08
-6.3303784e-09
-1.1920252e-08
8.3656163e-09
1.4387517e-08
-8.3934482e-09
-1.4413479e-08
5.959586e-09
1.4651988e-08
-5.9819316e-09
-1.4672478e-08
5.7358848e-09
1.4891822e-08
-5.7538085e-09
-1.4907883e-08
5.4776414e-09
1.731742e-08
-5.4921755e-09
-1.7330084e-08
2.9697012e-09
1.7481594e-08
-2.9818006e-09
-1.7491831e-08
2.6560307e-09
1.5375121e-08
-2.6665353e-09
-1.5383803e-08
2.3250174e-09
1.7645822e-08
-2.3346207e-09
-1.7653689e-08
1.9859266e-09
1.5407309e-08
-1.995154e-09
-1.5414944e-08
-5.6942456e-10
1.5306624e-08
5.6022502e-10
-1.531444e-08
-8.9035935e-10
1.5113882e-08
8.8101597e-10
-1.5122116e-08
-1.1823702e-09
1.4817877e-08
1.1728693e-09
-1.4826598e-08
-3.6502359e-09
1.4407053e-08
3.6406867e-09
-1.4416191e-08
-3.8413723e-09
1.1650658e-08
3.8319539e-09
-1.1660038e-08
-3.9615635e-09
1.0975854e-08
3.9524585e-09
-1.0985251e-08
-6.2189753e-09
7.935132e-09
6.2103039e-09
-7.9443333e-09
-3.9494725e-09
4.7424506e-09
3.9412455e-09
-4.7513106e-09
-3.8100458e-09
1.4008088e-09
3.8021683e-09
-1.4092865e-09
-3.5901693e-09
-2.0717432e-09
3.5825157e-09
2.0635804e-09
-3.3099876e-09
-7.8510159e-09
3.3025602e-09
7.8430283e-09
-7.8376365e-10
-1.1419518e-08
7.7682099e-10
1.1411586e-08
-4.9573468e-10
-1.4874842e-08
4.8975917e-10
1.4866825e-08
-2.4977256e-09
-1.8021161e-08
2.492789e-09
1.8013381e-08
-1.7860462e-10
-2.0456683e-08
1.9870725e-10
2.044939e-08
-1.6316031e-10
-1.6905298e-08
1.8159496e-10
1.6900411e-08
-2.2036904e-10
-8.3834377e-09
1.982038e-10
8.3763708e-09
-1.870964e-08
-2.2512508e-08
1.88111e-08
2.246877e-08
3.5864775e-09
-3.8987701e-09
-3.7435603e-09
4.0318839e-09
-1.1232086e-08
-1.568265e-08
1.1294485e-08
1.552512e-08
1.2149102e-08
8.8031664e-09
-1.1973591e-08
-8.8798014e-09
9.6448604e-09
1.0109582e-08
-9.5371545e-09
-9.9450294e-09
2.5291677e-09
3.5409582e-09
-2.3999998e-09
-3.374495e-09
-2.3517505e-09
-1.8207165e-09
2.4754103e-09
2.0058852e-09
-5.5616159e-09
-5.5426661e-09
5.717562e-09
5.7442695e-09
-7.0751371e-09
-7.5773783e-09
7.2591233e-09
7.7894009e-09
-7.2496881e-09
-8.3093818e-09
7.448906e-09
8.5216762e-09
-6.584199e-09
-8.2453595e-09
6.7832089e-09
8.4467532e-09
-5.561955e-09
-7.3578478e-09
5.7448942e-09
7.53733e-09
-4.2422557e-09
-6.3776542e-09
4.3984204e-09
6.5268718e-09
-2.4258468e-09
-5.1077518e-09
2.5492941e-09
5.2225279e-09
-1.0178545e-09
-3.7851686e-09
1.1054296e-09
3.8639535e-09
6.2268342e-10
-2.4323304e-09
-5.7134809e-10
2.4753169e-09
2.2424991e-09
-6.3706963e-10
-2.2255655e-09
6.4628391e-10
3.8111816e-09
4.5736729e-10
-3.8253394e-09
-4.7871177e-10
4.8630923e-09
1.9341442e-09
-4.904143e-09
-1.9820816e-09
6.0546347e-09
2.8923387e-09
-6.1179332e-09
-2.9624174e-09
6.7228329e-09
3.5543782e-09
-6.803616e-09
-3.6418582e-09
7.3230768e-09
4.1537191e-09
-7.4167028e-09
-4.2538701e-09
7.6494732e-09
4.4868748e-09
-7.7515872e-09
-4.5952365e-09
7.9404126e-09
5.0185421e-09
-8.0470496e-09
-5.1310261e-09
8.2099483e-09
5.3245173e-09
-8.3176058e-09
-5.4375012e-09
8.0243234e-09
5.8646589e-09
-8.1300068e-09
-5.9750547e-09
8.2768439e-09
6.2065232e-09
-8.3780886e-09
-6.3118109e-09
8.3033925e-09
6.5786433e-09
-8.3982694e-09
-6.6768765e-09
8.3242814e-09
7.4272102e-09
-8.4113801e-09
-7.5169993e-09
8.5575863e-09
8.0854011e-09
-8.6359869e-09
-8.1658753e-09
8.3324506e-09
8.7714477e-09
-8.4016822e-09
-8.8422062e-09
8.7528509e-09
8.8141192e-09
-8.8128412e-09
-8.8751699e-09
6.4847196e-09
9.0943763e-09
-6.5357388e-09
-9.1460689e-09
6.4054153e-09
1.1601998e-08
-6.4480146e-09
-1.1644958e-08
6.2921387e-09
1.1890869e-08
-6.3270872e-09
-1.1925928e-08
8.3615995e-09
1.2171953e-08
-8.3898257e-09
-1.2200087e-08
5.9554665e-09
1.4656018e-08
-5.9779985e-09
-1.4678286e-08
5.7316891e-09
1.4896291e-08
-5.7495961e-09
-1.4913775e-08
5.4733839e-09
1.7322284e-08
-5.4877254e-09
-1.7336044e-08
2.9653857e-09
1.74868e-08
-2.9771654e-09
-1.7497822e-08
2.6516543e-09
1.5380607e-08
-2.6617782e-09
-1.5389771e-08
2.3205731e-09
1.7651516e-08
-2.3298156e-09
-1.765956e-08
1.9814089e-09
1.5413132e-08
-1.9903867e-09
-1.542063e-08
-5.7401252e-10
1.5312484e-08
5.6485738e-10
-1.5319838e-08
-8.9499636e-10
1.5119681e-08
8.8540509e-10
-1.5127118e-08
-3.4061232e-09
1.482351e-08
3.396013e-09
-1.4831096e-08
-3.6547644e-09
1.219329e-08
3.6442099e-09
-1.2200966e-08
-3.8456336e-09
1.1655626e-08
3.8348333e-09
-1.1663257e-08
-3.9653181e-09
8.7612028e-09
3.9545442e-09
-8.768641e-09
-4.0027829e-09
7.9390017e-09
3.9923265e-09
-7.9461448e-09
-3.9511871e-09
2.5265144e-09
3.9412994e-09
-2.5333576e-09
-3.810136e-09
-8.1588558e-10
3.8009821e-09
8.0923443e-10
-1.369156e-09
-4.2892765e-09
1.3607883e-09
4.2826209e-09
-3.3059081e-09
-7.8504131e-09
3.2982483e-09
7.8435052e-09
-2.9966627e-09
-1.3639447e-08
2.9894547e-09
1.3631965e-08
-2.706791e-09
-1.7096886e-08
2.6995051e-09
1.7088323e-08
-2.694986e-10
-1.802993e-08
2.6248592e-10
1.8019552e-08
-1.6869927e-10
-2.0466904e-08
1.7495055e-10
2.045413e-08
-1.5961765e-10
-1.4707846e-08
1.6185624e-10
1.4699986e-08
-2.2633029e-10
-8.4094721e-09
2.0116357e-10
8.411098e-09
-1.9261485e-08
-2.2549892e-08
1.9135624e-08
2.2695068e-08
3.0363592e-09
-4.5932946e-09
-3.4676219e-09
4.6201534e-09
-1.1064012e-08
-1.5479024e-08
1.0943257e-08
1.5199931e-08
1.2121667e-08
8.665892e-09
-1.2017412e-08
-8.7860403e-09
9.6110783e-09
1.0041967e-08
-9.5132517e-09
-9.91939e-09
2.5693032e-09
3.5460165e-09
-2.4354188e-09
-3.4140277e-09
-2.2797703e-09
-1.8129918e-09
2.3995071e-09
1.9638022e-09
-5.532961e-09
-5.5604195e-09
5.6864976e-09
5.7239954e-09
-7.0808908e-09
-7.597568e-09
7.2667474e-09
7.7708174e-09
-7.044158e-09
-8.1194455e-09
7.2473775e-09
8.2956181e-09
-6.5919285e-09
-8.0417787e-09
6.7980944e-09
8.2124877e-09
-5.5615222e-09
-7.3644319e-09
5.7575701e-09
7.5212365e-09
-4.0141692e-09
-6.3764316e-09
4.1872717e-09
6.5114984e-09
-2.6396409e-09
-5.1025733e-09
2.7802285e-09
5.209052e-09
-1.0101246e-09
-3.7788211e-09
1.1134312e-09
3.8530114e-09
6.2906614e-10
-2.426644e-09
-5.642227e-10
2.4680519e-09
2.247314e-09
-8.5490027e-10
-2.219454e-09
8.6493878e-10
3.8145496e-09
4.6000747e-10
-3.8203602e-09
-4.7839051e-10
4.8652412e-09
1.7140828e-09
-4.9003104e-09
-1.7570347e-09
6.0558011e-09
2.6718133e-09
-6.1151654e-09
-2.7350826e-09
6.7232501e-09
3.5553244e-09
-6.8017757e-09
-3.6345701e-09
7.3229905e-09
4.1543319e-09
-7.4156345e-09
-4.2453224e-09
7.6491366e-09
4.4873323e-09
-7.7511389e-09
-4.5860459e-09
7.7181488e-09
5.0189408e-09
-7.8251751e-09
-5.1216856e-09
7.9878728e-09
5.324878e-09
-8.0961113e-09
-5.4283661e-09
8.2464217e-09
5.6430401e-09
-8.3526433e-09
-5.744442e-09
8.2774909e-09
6.2066891e-09
-8.3790773e-09
-6.3036651e-09
8.5264725e-09
6.5786068e-09
-8.6214156e-09
-6.669317e-09
8.547897e-09
7.4268919e-09
-8.6347719e-09
-7.5099925e-09
8.5598019e-09
8.0847264e-09
-8.637725e-09
-8.1593435e-09
8.3351285e-09
8.992267e-09
-8.403699e-09
-9.0579596e-09
8.755928e-09
8.8125621e-09
-8.8151586e-09
-8.8692753e-09
8.7072463e-09
1.1311446e-08
-8.7574952e-09
-1.1359455e-08
6.4090816e-09
1.1599438e-08
-6.4509818e-09
-1.1639293e-08
6.296002e-09
1.1887799e-08
-6.330389e-09
-1.192026e-08
8.3656078e-09
1.4387508e-08
-8.3934547e-09
-1.4413487e-08
5.9595802e-09
1.4651981e-08
-5.9819351e-09
-1.4672485e-08
5.7358809e-09
1.4891816e-08
-5.7538102e-09
-1.4907889e-08
5.4776389e-09
1.7317416e-08
-5.4921766e-09
-1.7330089e-08
2.9696994e-09
1.7481591e-08
-2.9818009e-09
-1.7491835e-08
2.6560293e-09
1.5375119e-08
-2.6665351e-09
-1.5383806e-08
2.3250161e-09
1.7645821e-08
-2.3346199e-09
-1.7653691e-08
1.9859255e-09
1.5407308e-08
-1.9951531e-09
-1.5414947e-08
-5.6942531e-10
1.5306623e-08
5.6022526e-10
-1.5314442e-08
-8.9036019e-10
1.5113881e-08
8.81016e-10
-1.5122116e-08
-1.1823711e-09
1.4817876e-08
1.1728696e-09
-1.4826599e-08
-3.6502368e-09
1.4407053e-08
3.6406872e-09
-1.4416191e-08
-3.8413727e-09
1.1650658e-08
3.8319543e-09
-1.1660038e-08
-3.9615635e-09
1.0975854e-08
3.9524584e-09
-1.0985252e-08
-6.2189755e-09
7.9351318e-09
6.2103035e-09
-7.9443332e-09
-3.9494726e-09
4.7424507e-09
3.9412453e-09
-4.7513105e-09
-3.8100458e-09
1.4008089e-09
3.8021681e-09
-1.4092865e-09
-3.5901692e-09
-2.0717432e-09
3.5825154e-09
2.0635804e-09
-3.3099874e-09
-7.851016e-09
3.3025599e-09
7.8430288e-09
-7.8376336e-10
-1.1419518e-08
7.7682079e-10
1.1411587e-08
-4.9573433e-10
-1.4874842e-08
4.8975897e-10
1.4866824e-08
-2.4977252e-09
-1.8021162e-08
2.4927889e-09
1.801338e-08
-1.786042e-10
-2.0456684e-08
1.9870721e-10
2.044939e-08
-1.6315996e-10
-1.6905298e-08
1.8159498e-10
1.6900411e-08
-2.2036879e-10
-8.3834379e-09
1.9820393e-10
8.3763706e-09
-1.8755506e-08
-2.2423825e-08
1.8787826e-08
2.2498684e-08
3.5154075e-09
-3.8831119e-09
-3.8177832e-09
4.0765847e-09
-1.1291316e-08
-1.5664228e-08
1.1204365e-08
1.5501343e-08
1.2123024e-08
8.7622409e-09
-1.2054164e-08
-8.8904687e-09
9.6071804e-09
1.00633e-08
-9.5782545e-09
-9.9756184e-09
2.5008038e-09
3.4988911e-09
-2.4287329e-09
-3.4113993e-09
-2.3694762e-09
-1.8329471e-09
2.4541777e-09
1.9484321e-09
-5.5681606e-09
-5.5463521e-09
5.7059288e-09
5.6926387e-09
-7.0743212e-09
-7.5955477e-09
7.254634e-09
7.7667049e-09
-7.24401e-09
-8.3212663e-09
7.4489615e-09
8.5052739e-09
-6.576447e-09
-8.2524942e-09
6.7858785e-09
8.4356144e-09
-5.5540115e-09
-7.3616128e-09
5.7487211e-09
7.5302976e-09
-4.2349123e-09
-6.3791581e-09
4.402497e-09
6.5228483e-09
-2.419658e-09
-5.1078349e-09
2.5530723e-09
5.2205509e-09
-1.0129975e-09
-3.78443e-09
1.1085981e-09
3.8633036e-09
6.2628151e-10
-2.4311948e-09
-5.6887092e-10
2.47549e-09
2.2450146e-09
-6.357998e-10
-2.2237378e-09
6.4692124e-10
3.8128334e-09
4.5862024e-10
-3.8240654e-09
-4.7785958e-10
4.8640941e-09
1.9352565e-09
-4.903308e-09
-1.9811833e-09
6.0551738e-09
2.8932777e-09
-6.1174263e-09
-2.9615716e-09
6.7230615e-09
3.5551499e-09
-6.8033403e-09
-3.6411134e-09
7.3231105e-09
4.154329e-09
-7.4165812e-09
-4.2532425e-09
7.6493959e-09
4.4873478e-09
-7.7515617e-09
-4.5947241e-09
7.9402824e-09
5.0189011e-09
-8.0470791e-09
-5.13062e-09
8.2098017e-09
5.3247831e-09
-8.3176615e-09
-5.4371878e-09
8.0241818e-09
5.8648512e-09
-8.1300704e-09
-5.9748182e-09
8.2767191e-09
6.2066587e-09
-8.3781506e-09
-6.3116366e-09
8.3032892e-09
6.5787363e-09
-8.398324e-09
-6.6767513e-09
8.3241998e-09
7.427272e-09
-8.4114251e-09
-7.516911e-09
8.5575245e-09
8.0854404e-09
-8.6360221e-09
-8.1658153e-09
8.3324057e-09
8.7714709e-09
-8.4017086e-09
-8.8421664e-09
8.7528196e-09
8.8141317e-09
-8.8128601e-09
-8.8751442e-09
6.4846987e-09
9.094382e-09
-6.5357515e-09
-9.146054e-09
6.4054023e-09
1.1602e-08
-6.4480226e-09
-1.1644949e-08
6.2921309e-09
1.1890868e-08
-6.3270916e-09
-1.1925924e-08
8.3615953e-09
1.2171951e-08
-8.389828e-09
-1.2200086e-08
5.9554647e-09
1.4656015e-08
-5.977999e-09
-1.4678286e-08
5.7316888e-09
1.4896288e-08
-5.7495951e-09
-1.4913776e-08
5.4733844e-09
1.7322282e-08
-5.4877246e-09
-1.7336045e-08
2.9653863e-09
1.7486798e-08
-2.9771641e-09
-1.7497824e-08
2.6516547e-09
1.5380605e-08
-2.6617762e-09
-1.5389772e-08
2.3205732e-09
1.7651515e-08
-2.329814e-09
-1.7659561e-08
1.9814085e-09
1.5413131e-08
-1.9903851e-09
-1.5420631e-08
-5.7401249e-10
1.5312484e-08
5.648592e-10
-1.531984e-08
-8.9499651e-10
1.5119681e-08
8.8540617e-10
-1.5127119e-08
-3.4061236e-09
1.482351e-08
3.3960138e-09
-1.4831096e-08
-3.6547651e-09
1.219329e-08
3.6442111e-09
-1.2200966e-08
-3.8456345e-09
1.1655626e-08
3.834834e-09
-1.1663257e-08
-3.9653181e-09
8.7612026e-09
3.9545445e-09
-8.7686406e-09
-4.0027829e-09
7.9390018e-09
3.9923267e-09
-7.9461443e-09
-3.9511873e-09
2.5265149e-09
3.9412994e-09
-2.5333581e-09
-3.8101361e-09
-8.1588597e-10
3.800982e-09
8.0923436e-10
-1.3691559e-09
-4.2892769e-09
1.3607881e-09
4.2826213e-09
-3.305908e-09
-7.8504131e-09
3.2982481e-09
7.8435053e-09
-2.9966624e-09
-1.3639447e-08
2.9894545e-09
1.3631965e-08
-2.7067907e-09
-1.7096886e-08
2.6995049e-09
1.7088322e-08
-2.6949819e-10
-1.802993e-08
2.624858e-10
1.8019552e-08
-1.6869886e-10
-2.0466904e-08
1.7495047e-10
2.045413e-08
-1.5961733e-10
-1.4707846e-08
1.6185613e-10
1.4699986e-08
-2.2633007e-10
-8.4094722e-09
2.0116369e-10
8.4110978e-09
)
;

boundaryField
{
    movingWall
    {
        type            calculated;
        value           nonuniform List<scalar> 
16
(
-2.7737593e-10
-2.8590409e-10
-2.7737576e-10
-2.8590393e-10
-7.7122838e-09
-7.7280876e-09
-7.712284e-09
-7.7280877e-09
2.4090374e-10
2.5012255e-10
2.4090388e-10
2.5012272e-10
7.7007864e-09
7.7330039e-09
7.7007864e-09
7.7330038e-09
)
;
    }
    CPLReceiveMD
    {
        type            calculated;
        value           nonuniform List<scalar> 
16
(
-2.0527471e-08
-2.1565332e-08
-2.2138337e-08
-2.1615204e-08
-2.5244523e-08
-2.5547259e-08
-2.5307317e-08
-2.544239e-08
2.2581007e-08
2.1933013e-08
2.231473e-08
2.1932747e-08
2.535109e-08
2.5203382e-08
2.5321363e-08
2.523689e-08
)
;
    }
    streamwiseIn
    {
        type            cyclic;
    }
    streamwiseOut
    {
        type            cyclic;
    }
    front
    {
        type            cyclic;
    }
    back
    {
        type            cyclic;
    }
}


// ************************************************************************* //
