/*--------------------------------*- C++ -*----------------------------------*\
| =========                 |                                                 |
| \\      /  F ield         | OpenFOAM: The Open Source CFD Toolbox           |
|  \\    /   O peration     | Version:  3.0.x                                 |
|   \\  /    A nd           | Web:      www.OpenFOAM.org                      |
|    \\/     M anipulation  |                                                 |
\*---------------------------------------------------------------------------*/
FoamFile
{
    version     2.0;
    format      ascii;
    class       volScalarField;
    location    "400";
    object      sigmaxz;
}
// * * * * * * * * * * * * * * * * * * * * * * * * * * * * * * * * * * * * * //

dimensions      [0 2 -2 0 0 0 0];

internalField   nonuniform List<scalar> 
960
(
1.9939723e-11
-2.4179035e-11
-3.2963209e-12
7.5356336e-12
5.5778325e-12
-7.5544891e-12
-5.5778322e-12
2.4197891e-11
2.2439284e-11
-2.190761e-11
-2.2439284e-11
5.2642094e-12
5.2472955e-12
-2.0304057e-11
-5.2472952e-12
3.6606551e-12
4.3004877e-12
-2.7154734e-12
-4.3004877e-12
2.7154736e-12
3.2340597e-12
-1.8769924e-12
-3.2340597e-12
1.8769921e-12
2.2656824e-12
-1.1131961e-12
-1.8909084e-11
1.1131961e-12
1.811922e-11
-5.2353783e-13
-1.475819e-12
5.2353783e-13
8.7745918e-13
-9.3765096e-14
-8.7745802e-13
9.3765096e-14
4.5159831e-13
2.2011248e-13
-4.5159889e-13
-2.2011248e-13
1.6683945e-13
3.9635612e-13
-1.6683945e-13
-3.9635612e-13
-1.0125928e-14
4.8343238e-13
1.0125346e-14
-4.8343238e-13
-1.0998276e-13
5.034734e-13
1.0998276e-13
-5.034734e-13
-1.5855153e-13
4.7859414e-13
1.585492e-13
-4.7859414e-13
-1.7309822e-13
4.2857671e-13
1.7309822e-13
-4.2857671e-13
-1.6659115e-13
3.6667755e-13
1.6659115e-13
-3.6667639e-13
-1.4818967e-13
3.0234907e-13
1.4818967e-13
-3.023479e-13
-1.256813e-13
2.4153889e-13
1.256813e-13
-2.4153889e-13
-1.0105968e-13
1.8756117e-13
1.0105968e-13
-1.8756117e-13
-7.8844551e-14
1.4184013e-13
7.8844551e-14
-1.418378e-13
-5.9470991e-14
1.0453411e-13
5.9470991e-14
-1.0453643e-13
-4.3399728e-14
7.5064574e-14
4.3399728e-14
-7.5062246e-14
-3.063436e-14
5.2454563e-14
3.063436e-14
-5.2454563e-14
-2.0811313e-14
3.5588104e-14
2.0811313e-14
-3.5588104e-14
-1.3483967e-14
2.3344078e-14
1.3483967e-14
-2.334175e-14
-8.1800308e-15
1.4700588e-14
8.1800308e-15
-1.4700588e-14
-4.4586136e-15
8.7828531e-15
4.4586136e-15
-8.7735408e-15
-1.9449662e-15
4.8570688e-15
1.94031e-15
-4.8524127e-15
-3.1217079e-16
2.3485512e-15
3.1217079e-16
-2.3485512e-15
6.7410636e-16
8.3033545e-16
-6.7410636e-16
-8.2567931e-16
1.205899e-15
-4.3201277e-17
-1.2105551e-15
4.3201277e-17
1.4409912e-15
-4.9435979e-16
-1.4409912e-15
4.9435979e-16
1.4717637e-15
-6.9361226e-16
-1.4717637e-15
6.9361226e-16
1.3791769e-15
-7.5334842e-16
-1.3791769e-15
7.5334842e-16
1.2173814e-15
-7.3406459e-16
-1.2173814e-15
7.4337686e-16
1.0238977e-15
-6.9713804e-16
-1.0145855e-15
7.0645031e-16
8.2359539e-16
-6.560791e-16
-8.2359539e-16
6.6539137e-16
6.3176451e-16
-6.3008929e-16
-6.2245224e-16
6.3008929e-16
4.5825477e-16
-6.0330941e-16
-4.5825477e-16
6.0330941e-16
3.0858629e-16
-5.7429215e-16
-3.0858629e-16
5.8360442e-16
1.8533496e-16
-5.5784502e-16
-1.8533496e-16
5.6715729e-16
9.8195775e-17
-5.4000213e-16
-8.8883503e-17
5.493144e-16
1.6602542e-17
-5.273306e-16
-1.6602542e-17
5.273306e-16
-3.4026269e-17
-4.9766223e-16
3.4026269e-17
4.9766223e-16
-6.6582582e-17
-4.5865989e-16
6.6582582e-17
4.5865989e-16
-8.3763585e-17
-4.1149851e-16
8.3763585e-17
4.1149851e-16
-9.0820379e-17
-3.5485078e-16
9.0820379e-17
3.5485078e-16
-9.0094178e-17
-2.9107904e-16
9.0094178e-17
2.9107904e-16
-8.3209295e-17
-2.2273801e-16
8.3209295e-17
2.2273801e-16
-7.5123672e-17
-1.5488447e-16
7.5123672e-17
1.5488447e-16
-6.6794534e-17
-9.0825166e-17
6.6794534e-17
9.0825166e-17
-5.6590116e-17
-3.2664624e-17
5.6590116e-17
3.2664624e-17
-4.0958357e-17
1.5992388e-17
4.0958357e-17
-1.5992388e-17
-2.005056e-17
5.0673019e-17
2.005056e-17
-5.0673019e-17
-9.2462339e-18
7.1949348e-17
9.2462339e-18
-7.1949348e-17
2.4662063e-17
7.6012726e-17
-4.3286606e-17
-7.6012726e-17
9.2023091e-17
6.5738369e-17
-7.3398547e-17
-6.5738369e-17
8.9343382e-17
6.5598705e-17
-8.9343382e-17
-4.6974162e-17
8.0261054e-17
2.3660887e-17
-8.0261054e-17
-2.3660887e-17
3.8767478e-17
2.0432087e-17
-3.8767478e-17
-1.8075433e-18
-2.5586484e-11
1.9405088e-10
2.5586484e-11
-1.9405088e-10
-2.6415138e-11
1.9056766e-10
2.6415137e-11
-1.7392426e-10
-2.3144682e-11
1.1009883e-10
6.5012804e-12
-1.2674224e-10
-4.9110212e-12
4.72827e-11
4.9110209e-12
-6.3926101e-11
-3.7061119e-12
2.8016735e-11
2.0349513e-11
-1.1373333e-11
-2.7308029e-12
-6.4520176e-13
2.7308029e-12
6.4520205e-13
-1.9152276e-12
-2.1953694e-11
1.9152276e-12
5.3102929e-12
-1.2711713e-12
-2.2711417e-11
1.2711713e-12
6.0680156e-12
-7.9100868e-13
-2.2085903e-11
7.910081e-13
2.2085903e-11
-4.5181726e-13
-4.4811681e-12
4.5181784e-13
4.4811681e-12
-2.2731674e-13
-3.596537e-12
2.2731674e-13
3.5965375e-12
-8.7668618e-14
-2.8409135e-12
8.7668618e-14
2.8409141e-12
2.7977558e-16
-2.2272318e-12
-2.7977558e-16
2.2272318e-12
6.1653301e-14
-1.7270653e-12
-6.1652136e-14
1.7270665e-12
9.3046018e-14
-1.3193777e-12
-9.3046018e-14
1.3193777e-12
1.0154649e-13
-9.9175117e-13
-1.0154649e-13
9.9175117e-13
9.3885162e-14
-7.3339984e-13
-9.3885162e-14
7.3339868e-13
8.0506962e-14
-5.3385005e-13
-8.0505798e-14
5.3385005e-13
6.223349e-14
-3.8284653e-13
-6.223349e-14
3.8284653e-13
4.7225219e-14
-2.7068001e-13
-4.7225219e-14
2.7068001e-13
3.4141808e-14
-1.8881709e-13
-3.4141808e-14
1.8881942e-13
2.3452899e-14
-1.3003732e-13
-2.3450571e-14
1.30035e-13
1.5266911e-14
-8.8421e-14
-1.5269239e-14
8.8421e-14
9.252235e-15
-5.9359457e-14
-9.2499069e-15
5.9359457e-14
5.0055679e-15
-3.9333948e-14
-5.0055679e-15
3.9333948e-14
2.1315454e-15
-2.5713494e-14
-2.1315454e-15
2.5713494e-14
2.8051455e-16
-1.6575953e-14
-2.8051455e-16
1.6571297e-14
-8.3199033e-16
-1.0515492e-14
8.3199033e-16
1.0515492e-14
-1.4280621e-15
-6.558825e-15
1.4280621e-15
6.558825e-15
-1.6768277e-15
-4.0094137e-15
1.6768277e-15
4.0094137e-15
-1.7014233e-15
-2.3859193e-15
1.7014233e-15
2.3859193e-15
-1.5888457e-15
-1.3610816e-15
1.5888457e-15
1.3610816e-15
-1.4018336e-15
-7.1639058e-16
1.4018336e-15
7.1639058e-16
-1.1806281e-15
-3.0857932e-16
1.1806281e-15
3.0857932e-16
-9.5378491e-16
-4.7486121e-17
9.5378491e-16
4.7486121e-17
-7.389156e-16
1.2389448e-16
7.389156e-16
-1.2389448e-16
-5.455261e-16
2.403303e-16
5.455261e-16
-2.403303e-16
-3.7861425e-16
3.2008049e-16
3.7861425e-16
-3.2008049e-16
-2.4032439e-16
3.7324715e-16
2.4032439e-16
-3.7324715e-16
-1.3090418e-16
4.0597069e-16
1.3090418e-16
-4.0597069e-16
-4.79902e-17
4.2011444e-16
4.79902e-17
-4.2011444e-16
1.1288087e-17
4.1772103e-16
-1.1288087e-17
-4.1772103e-16
4.9797274e-17
4.0036007e-16
-4.9797274e-17
-4.0036007e-16
7.1944099e-17
3.6906342e-16
-7.1944099e-17
-3.6906342e-16
8.1945185e-17
3.267135e-16
-8.1945185e-17
-3.267135e-16
8.1550753e-17
2.7600239e-16
-8.1550753e-17
-2.7600239e-16
9.3165769e-17
2.194429e-16
-7.4541225e-17
-2.194429e-16
6.5732384e-17
1.5969442e-16
-6.5732384e-17
-1.5969442e-16
5.5288468e-17
1.0094141e-16
-5.5288468e-17
-1.0094141e-16
4.4738635e-17
4.5906506e-17
-4.4738635e-17
-4.5906506e-17
5.2801294e-17
-3.3165839e-18
-3.4176751e-17
3.3165839e-18
4.2444631e-17
-4.6398137e-17
-2.3820087e-17
4.6398137e-17
2.8653216e-17
-6.1642924e-17
-1.0028672e-17
8.0267467e-17
-8.6982963e-18
-1.0058706e-16
8.6982963e-18
1.0058706e-16
-1.5109687e-17
-1.0863047e-16
3.373423e-17
1.0863047e-16
-4.2485037e-17
-1.0370018e-16
6.1109581e-17
1.0370018e-16
-8.5313322e-17
-8.7213362e-17
8.5313322e-17
8.7213362e-17
-9.6897594e-17
-6.2833025e-17
9.6897594e-17
6.2833025e-17
-8.3388133e-17
-3.4199123e-17
8.3388133e-17
3.4199123e-17
-3.9749095e-17
-7.1256993e-18
3.9749095e-17
7.1256993e-18
-1.9939722e-11
2.4179035e-11
3.2963209e-12
-7.5356336e-12
-5.5778325e-12
7.5544892e-12
5.5778325e-12
-2.4197891e-11
-2.2439284e-11
2.1907611e-11
2.2439285e-11
-5.2642094e-12
-5.2472955e-12
2.0304057e-11
5.2472955e-12
-3.6606554e-12
-4.3004877e-12
2.7154736e-12
4.3004877e-12
-2.7154739e-12
-3.2340597e-12
1.8769924e-12
3.2340597e-12
-1.8769927e-12
-2.2656824e-12
1.1131964e-12
1.8909084e-11
-1.1131961e-12
-1.811922e-11
5.2353783e-13
1.475819e-12
-5.2353783e-13
-8.774586e-13
9.3765096e-14
8.774586e-13
-9.3765096e-14
-4.5159889e-13
-2.2011248e-13
4.5159889e-13
2.2011248e-13
-1.6683945e-13
-3.963567e-13
1.6683945e-13
3.9635612e-13
1.0125346e-14
-4.8343296e-13
-1.0125346e-14
4.8343238e-13
1.0998276e-13
-5.034734e-13
-1.0998276e-13
5.034734e-13
1.5855037e-13
-4.7859531e-13
-1.5855037e-13
4.7859414e-13
1.7309936e-13
-4.2857671e-13
-1.730982e-13
4.2857671e-13
1.6659116e-13
-3.6667755e-13
-1.6659116e-13
3.6667639e-13
1.4818967e-13
-3.023479e-13
-1.4818967e-13
3.023479e-13
1.256813e-13
-2.4153889e-13
-1.256813e-13
2.4153889e-13
1.0105968e-13
-1.8756117e-13
-1.0105968e-13
1.8756117e-13
7.8844551e-14
-1.4184013e-13
-7.8844551e-14
1.418378e-13
5.9470991e-14
-1.0453411e-13
-5.9470991e-14
1.0453178e-13
4.3399728e-14
-7.5059917e-14
-4.3399728e-14
7.5062245e-14
3.063436e-14
-5.2454563e-14
-3.063436e-14
5.2454563e-14
2.0811313e-14
-3.5588104e-14
-2.0811313e-14
3.5588104e-14
1.3483967e-14
-2.3344078e-14
-1.3483967e-14
2.334175e-14
8.1800306e-15
-1.4700588e-14
-8.1800306e-15
1.4700588e-14
4.4586136e-15
-8.7735408e-15
-4.4586136e-15
8.7735408e-15
1.94031e-15
-4.8524127e-15
-1.94031e-15
4.8524127e-15
3.1217079e-16
-2.3485512e-15
-3.1217079e-16
2.3485512e-15
-6.7410636e-16
-8.2567948e-16
6.7410636e-16
8.2102334e-16
-1.2105551e-15
4.3201277e-17
1.2105551e-15
-4.3201277e-17
-1.440991e-15
4.9435979e-16
1.440991e-15
-4.9435979e-16
-1.4717637e-15
6.9361226e-16
1.4717637e-15
-6.9361226e-16
-1.3791771e-15
7.5334842e-16
1.3791771e-15
-7.5334842e-16
-1.2173814e-15
7.4337686e-16
1.2173814e-15
-7.4337686e-16
-1.0238977e-15
7.0645031e-16
1.0238977e-15
-7.0645031e-16
-8.2359539e-16
6.6539137e-16
8.2359539e-16
-6.6539137e-16
-6.3176453e-16
6.3008929e-16
6.3176453e-16
-6.3008929e-16
-4.5825477e-16
6.0330942e-16
4.5825477e-16
-6.0330942e-16
-3.0858629e-16
5.8360443e-16
3.0858629e-16
-5.8360443e-16
-1.8533498e-16
5.6715731e-16
1.8533498e-16
-5.6715731e-16
-8.8883503e-17
5.493144e-16
8.8883503e-17
-5.493144e-16
-1.6602559e-17
5.273306e-16
1.6602559e-17
-5.273306e-16
3.4026269e-17
4.9766224e-16
-3.4026269e-17
-4.9766224e-16
6.658257e-17
4.5865989e-16
-6.658257e-17
-4.5865989e-16
8.3763585e-17
4.1149851e-16
-8.3763585e-17
-4.1149851e-16
9.0820381e-17
3.5485077e-16
-9.0820381e-17
-3.5485077e-16
9.0094181e-17
2.9107904e-16
-9.0094181e-17
-2.9107904e-16
8.3209297e-17
2.2273801e-16
-8.3209297e-17
-2.2273801e-16
7.5123674e-17
1.5488447e-16
-7.5123674e-17
-1.5488447e-16
4.8169992e-17
9.0825166e-17
-6.6794535e-17
-9.0825166e-17
5.6590118e-17
3.2664625e-17
-5.6590118e-17
-3.2664625e-17
4.0958359e-17
-3.4616932e-17
-4.0958359e-17
1.5992388e-17
2.0050561e-17
-5.0673019e-17
-2.0050561e-17
5.0673019e-17
-9.3783086e-18
-7.1949348e-17
9.3783086e-18
7.1949348e-17
-4.3286606e-17
-7.6012727e-17
4.3286606e-17
9.4637271e-17
-7.3398547e-17
-4.7113825e-17
7.3398547e-17
6.5738369e-17
-8.9343382e-17
-4.697416e-17
8.9343382e-17
4.697416e-17
-8.0261054e-17
-2.3660887e-17
8.0261054e-17
2.3660887e-17
-3.8767478e-17
-1.8075433e-18
3.8767478e-17
1.8075433e-18
2.5586484e-11
-1.9405088e-10
-2.5586484e-11
1.9405088e-10
2.6415138e-11
-1.9056766e-10
-2.6415138e-11
1.7392426e-10
2.3144682e-11
-1.1009883e-10
-6.5012804e-12
1.2674224e-10
4.9110212e-12
-4.72827e-11
-4.9110212e-12
6.3926102e-11
3.7061119e-12
-2.8016735e-11
-2.0349513e-11
1.1373334e-11
2.7308029e-12
6.4520176e-13
-2.7308029e-12
-6.4520147e-13
1.9152275e-12
2.1953694e-11
-1.9152275e-12
-5.3102929e-12
1.2711713e-12
2.2711417e-11
-1.2711713e-12
-6.0680156e-12
7.910081e-13
2.2085903e-11
-7.910081e-13
-2.2085902e-11
4.5181784e-13
4.4811681e-12
-4.5181784e-13
-4.4811681e-12
2.2731732e-13
3.5965375e-12
-2.2731674e-13
-3.5965375e-12
8.76692e-14
2.8409141e-12
-8.7668618e-14
-2.8409135e-12
-2.7977558e-16
2.2272318e-12
2.7977558e-16
-2.2272318e-12
-6.1652136e-14
1.7270665e-12
6.1653301e-14
-1.7270653e-12
-9.3046018e-14
1.3193777e-12
9.3046018e-14
-1.3193777e-12
-1.0154532e-13
9.9175117e-13
1.0154649e-13
-9.9175e-13
-9.3885162e-14
7.3339868e-13
9.3885162e-14
-7.3339751e-13
-8.0506962e-14
5.3385005e-13
8.0506962e-14
-5.3385005e-13
-6.223349e-14
3.8284653e-13
6.223349e-14
-3.8284653e-13
-4.7225219e-14
2.7068001e-13
4.7225219e-14
-2.7067768e-13
-3.4141808e-14
1.8881709e-13
3.4141808e-14
-1.8881477e-13
-2.3450571e-14
1.30035e-13
2.3450571e-14
-1.30035e-13
-1.5266911e-14
8.8421e-14
1.5269239e-14
-8.8421e-14
-9.252235e-15
5.9359457e-14
9.2499069e-15
-5.9359457e-14
-5.0055679e-15
3.933395e-14
5.0055679e-15
-3.9331622e-14
-2.1315454e-15
2.5713494e-14
2.1315454e-15
-2.5713494e-14
-2.8051455e-16
1.6571297e-14
2.8051455e-16
-1.6566641e-14
8.3664646e-16
1.0515492e-14
-8.3199033e-16
-1.0515492e-14
1.4327182e-15
6.558825e-15
-1.4280621e-15
-6.558825e-15
1.6768277e-15
4.0094137e-15
-1.6721716e-15
-4.0047576e-15
1.7060794e-15
2.3859195e-15
-1.7014233e-15
-2.3859195e-15
1.5935018e-15
1.3610816e-15
-1.5888457e-15
-1.3610816e-15
1.4064897e-15
7.1639058e-16
-1.4018336e-15
-7.1639058e-16
1.1806283e-15
3.0857932e-16
-1.1759722e-15
-3.0392318e-16
9.5378491e-16
4.7485955e-17
-9.5378491e-16
-4.7485955e-17
7.389156e-16
-1.2389448e-16
-7.389156e-16
1.2389448e-16
5.455261e-16
-2.4033028e-16
-5.455261e-16
2.4964256e-16
3.7861425e-16
-3.200805e-16
-3.7861425e-16
3.200805e-16
2.4032439e-16
-3.7324715e-16
-2.3101212e-16
3.8255942e-16
1.4021645e-16
-4.0597069e-16
-1.3090418e-16
4.1528296e-16
4.79902e-17
-4.2011445e-16
-3.8677928e-17
4.2011445e-16
-1.1288104e-17
-4.1772103e-16
1.1288104e-17
4.1772103e-16
-4.979729e-17
-4.0036007e-16
4.979729e-17
4.0036007e-16
-7.1944115e-17
-3.6906341e-16
7.1944115e-17
3.6906341e-16
-8.1945185e-17
-3.267135e-16
9.1257457e-17
3.267135e-16
-8.1550753e-17
-2.7600239e-16
8.1550753e-17
2.7600239e-16
-9.3165765e-17
-2.194429e-16
7.4541222e-17
2.194429e-16
-6.5732382e-17
-1.5969442e-16
6.5732382e-17
1.7831896e-16
-5.5288464e-17
-1.0094141e-16
5.5288464e-17
1.0094141e-16
-4.4738635e-17
-4.5906506e-17
6.3363178e-17
4.5906506e-17
-3.4176748e-17
3.3165855e-18
3.4176748e-17
1.5307958e-17
-4.2444628e-17
4.6398138e-17
2.3820085e-17
-2.7773595e-17
-1.002867e-17
8.0267468e-17
1.002867e-17
-6.1642925e-17
8.6982985e-18
1.0058706e-16
-8.6982985e-18
-8.1962514e-17
3.373423e-17
1.0863047e-16
-3.373423e-17
-1.0863047e-16
6.1109582e-17
1.0370018e-16
-6.1109582e-17
-1.0370018e-16
8.5313324e-17
8.7213361e-17
-8.5313324e-17
-8.7213361e-17
9.6897594e-17
6.2833025e-17
-9.6897594e-17
-4.4208481e-17
8.3388133e-17
3.4199123e-17
-8.3388133e-17
-3.4199123e-17
3.9749097e-17
7.1256993e-18
-2.1124553e-17
1.1498844e-17
)
;

boundaryField
{
    movingWall
    {
        type            calculated;
        value           nonuniform List<scalar> 
16
(
3.8767478e-17
-3.9749095e-17
-3.8767478e-17
3.9749097e-17
2.0432087e-17
-7.1256993e-18
-1.8075433e-18
7.1256993e-18
-3.8767478e-17
3.9749095e-17
3.8767478e-17
-2.1124553e-17
-1.8075433e-18
7.1256993e-18
1.8075433e-18
1.1498844e-17
)
;
    }
    CPLReceiveMD
    {
        type            calculated;
        value           nonuniform List<scalar> 
16
(
1.9939723e-11
-2.5586484e-11
-1.9939722e-11
2.5586484e-11
-2.4179035e-11
1.9405088e-10
2.4179035e-11
-1.9405088e-10
-3.2963209e-12
2.5586484e-11
3.2963209e-12
-2.5586484e-11
7.5356336e-12
-1.9405088e-10
-7.5356336e-12
1.9405088e-10
)
;
    }
    streamwiseIn
    {
        type            cyclic;
    }
    streamwiseOut
    {
        type            cyclic;
    }
    front
    {
        type            cyclic;
    }
    back
    {
        type            cyclic;
    }
}


// ************************************************************************* //
