/*--------------------------------*- C++ -*----------------------------------*\
| =========                 |                                                 |
| \\      /  F ield         | OpenFOAM: The Open Source CFD Toolbox           |
|  \\    /   O peration     | Version:  3.0.x                                 |
|   \\  /    A nd           | Web:      www.OpenFOAM.org                      |
|    \\/     M anipulation  |                                                 |
\*---------------------------------------------------------------------------*/
FoamFile
{
    version     2.0;
    format      ascii;
    class       volScalarField;
    location    "400";
    object      sigmayz;
}
// * * * * * * * * * * * * * * * * * * * * * * * * * * * * * * * * * * * * * //

dimensions      [0 2 -2 0 0 0 0];

internalField   nonuniform List<scalar> 
960
(
1.4077354e-10
1.5334878e-11
8.7870918e-11
-2.3262115e-11
2.6127722e-12
3.2085705e-11
2.2363633e-11
1.6785757e-11
-3.1530205e-11
3.1132501e-11
-1.1255641e-12
3.4419643e-11
-3.6011331e-11
2.3026617e-11
-1.5366053e-11
3.5339681e-11
-3.8547902e-11
1.1396047e-11
-2.4029781e-11
2.750889e-11
-3.8410141e-11
1.244631e-12
-2.5550586e-11
1.7295446e-11
-3.7334215e-11
-6.3279894e-12
-2.6554821e-11
7.4645672e-12
-3.3225907e-11
-1.0981806e-11
-2.512694e-11
-9.8148691e-14
-2.7942913e-11
-1.318875e-11
-2.2034535e-11
-5.1431943e-12
-2.2194729e-11
-1.3602504e-11
-1.8296079e-11
-8.0032952e-12
-1.6587351e-11
-1.2844593e-11
-1.4488505e-11
-9.1941137e-12
-1.1854747e-11
-1.143165e-11
-1.0997589e-11
-9.2356148e-12
-7.9900545e-12
-9.7334178e-12
-8.0240677e-12
-8.5510554e-12
-5.0098654e-12
-7.9972543e-12
-5.6023471e-12
-7.490805e-12
-2.8513063e-12
-6.3731937e-12
-3.7389942e-12
-6.3040027e-12
-1.3713118e-12
-4.9374474e-12
-2.3737168e-12
-5.1306651e-12
-4.2222114e-13
-3.7328846e-12
-1.4164719e-12
-4.0538471e-12
1.3582906e-13
-2.7430813e-12
-7.7639733e-13
-3.1141928e-12
4.2175129e-13
-1.9595365e-12
-3.7084864e-13
-2.3288185e-12
5.2921796e-13
-1.3690673e-12
-1.3097955e-13
-1.6972175e-12
5.2892972e-13
-9.2460831e-13
-2.2064783e-15
-1.20441e-12
4.7046929e-13
-6.0277259e-13
5.6248266e-14
-8.305524e-13
3.8688253e-13
-3.7458918e-13
7.2949156e-14
-5.5294069e-13
2.9886571e-13
-2.1636097e-13
6.7502604e-14
-3.5199456e-13
2.1817424e-13
-1.1039869e-13
5.1898637e-14
-2.1045617e-13
1.4987877e-13
-4.2130578e-14
3.4154994e-14
-1.1389746e-13
9.5775035e-14
-5.0148272e-16
1.7663751e-14
-5.0228933e-14
5.5209645e-14
2.2827234e-14
4.3456784e-15
-1.0437771e-14
2.6362495e-14
3.4098315e-14
-5.3289782e-15
1.2904786e-14
7.035041e-15
3.7693112e-14
-1.161217e-14
2.5159244e-14
-4.9922136e-15
3.6661791e-14
-1.5090665e-14
2.9956858e-14
-1.1672411e-14
3.3055715e-14
-1.6450498e-14
3.0521202e-14
-1.4632375e-14
2.8397549e-14
-1.6292622e-14
2.8476425e-14
-1.5133944e-14
2.3451663e-14
-1.5181645e-14
2.4960482e-14
-1.4177927e-14
1.8804342e-14
-1.3492509e-14
2.1379307e-14
-1.2507015e-14
1.4753601e-14
-1.1531794e-14
1.748138e-14
-1.0522393e-14
1.1133792e-14
-9.720052e-15
1.4054732e-14
-8.5391317e-15
8.2837834e-15
-7.7934572e-15
1.1048467e-14
-6.6434814e-15
6.00103e-15
-6.1261381e-15
8.5066872e-15
-5.0455722e-15
4.2603755e-15
-4.9021024e-15
6.4252795e-15
-3.759587e-15
2.9588537e-15
-3.623507e-15
4.7627753e-15
-2.7784597e-15
2.0328617e-15
-2.6204074e-15
3.5346468e-15
-2.0897263e-15
1.3788951e-15
-1.8847446e-15
2.3659649e-15
-1.6735906e-15
8.2935787e-16
-1.2346367e-15
1.8252143e-15
-1.1692063e-15
6.8875996e-16
-6.608313e-16
1.0525766e-15
-1.0599163e-15
4.3286645e-16
-4.8151557e-16
6.9548823e-16
-8.2930549e-16
3.7799884e-16
-1.8498651e-16
5.6955583e-16
-9.5481412e-16
3.4791285e-16
6.8777777e-17
3.1770824e-16
-9.196489e-16
3.2595476e-16
1.2014167e-16
2.6654427e-16
-7.7819028e-16
1.3830587e-16
1.7803463e-16
4.0603188e-16
-7.4199199e-16
2.8460799e-16
1.9240962e-16
3.7749154e-16
-7.0259482e-16
2.6911905e-16
1.7068276e-16
1.6658811e-16
-5.986785e-16
8.4129351e-17
1.4813219e-16
2.7199005e-16
-4.7190415e-16
5.9649267e-17
1.3295943e-16
1.927561e-16
-3.2718855e-16
3.247345e-17
1.0624017e-16
1.1398777e-16
-1.8066718e-16
8.3040239e-19
6.0978958e-17
7.9633956e-17
-7.6610342e-17
-2.305118e-17
-4.5084288e-19
-3.9393603e-17
-6.5987742e-17
-2.7074612e-17
-1.0814683e-16
1.1212553e-16
-1.593834e-16
3.0462375e-17
-2.9202572e-16
2.9774659e-16
-3.5372281e-16
7.0616e-17
-4.5313e-16
5.4298104e-16
-6.6854978e-10
-1.427426e-10
-8.8430324e-11
-7.7731735e-11
3.8039572e-10
-2.4254386e-11
-1.1606733e-11
-5.337419e-11
3.9305948e-10
6.6316183e-11
4.813642e-11
2.5749166e-11
2.8473533e-10
7.8216327e-11
6.240766e-11
5.5152261e-11
1.7724275e-10
6.7043448e-11
5.1469545e-11
4.9583393e-11
1.0910576e-10
4.6259037e-11
4.2417232e-11
3.2286837e-11
3.7507963e-11
2.6677359e-11
2.1245612e-11
1.543709e-11
-1.7141261e-12
1.3511646e-11
5.4624235e-12
4.8941541e-12
-1.8734898e-11
5.5659671e-12
-4.220642e-12
-7.0941488e-13
-2.5182812e-11
8.6180409e-13
-9.8384758e-12
-3.4538009e-12
-2.6444826e-11
-1.9038859e-12
-1.2620199e-11
-4.6849765e-12
-2.5273957e-11
-3.4362244e-12
-1.347293e-11
-5.1664524e-12
-2.2722304e-11
-4.1247519e-12
-1.3036191e-11
-5.2552511e-12
-1.962833e-11
-4.2464872e-12
-1.1783272e-11
-4.9435039e-12
-1.643486e-11
-4.0212631e-12
-1.0174931e-11
-4.3097307e-12
-1.33979e-11
-3.6287986e-12
-8.4933797e-12
-3.6154854e-12
-1.067156e-11
-3.1472924e-12
-6.898279e-12
-2.9664331e-12
-8.3302924e-12
-2.66748e-12
-5.4778347e-12
-2.4067258e-12
-6.3890137e-12
-2.2309224e-12
-4.267961e-12
-1.9603707e-12
-4.8226093e-12
-1.8182425e-12
-3.2693645e-12
-1.5909225e-12
-3.5869166e-12
-1.461285e-12
-2.4660531e-12
-1.2695806e-12
-2.63179e-12
-1.1615385e-12
-1.8340927e-12
-1.0095837e-12
-1.9072133e-12
-9.1801747e-13
-1.3466288e-12
-8.0374306e-13
-1.3660714e-12
-7.2329408e-13
-9.7720726e-13
-6.406213e-13
-9.6769146e-13
-5.6830682e-13
-7.0135302e-13
-5.1058953e-13
-6.7817637e-13
-4.4528485e-13
-4.9830123e-13
-4.0689425e-13
-4.7061847e-13
-3.4800764e-13
-3.5058864e-13
-3.2359786e-13
-3.2338389e-13
-2.7084841e-13
-2.4445416e-13
-2.5657839e-13
-2.201734e-13
-2.1022009e-13
-1.6903939e-13
-2.0287293e-13
-1.4865062e-13
-1.6230277e-13
-1.1599626e-13
-1.595536e-13
-9.9650859e-14
-1.2477989e-13
-7.9055045e-14
-1.2479618e-13
-6.6433394e-14
-9.5273924e-14
-5.3583232e-14
-9.7128582e-14
-4.4153222e-14
-7.2287558e-14
-3.6148382e-14
-7.5239043e-14
-2.9377445e-14
-5.4655293e-14
-2.4376176e-14
-5.7764848e-14
-1.9660569e-14
-4.0845604e-14
-1.6446389e-14
-4.4262881e-14
-1.3437361e-14
-3.0432318e-14
-1.1130123e-14
-3.35504e-14
-9.2860647e-15
-2.2525914e-14
-7.6753299e-15
-2.5270599e-14
-6.4871165e-15
-1.6523064e-14
-5.4603336e-15
-1.8882653e-14
-4.6240997e-15
-1.2034531e-14
-3.9503761e-15
-1.4005522e-14
-3.3671581e-15
-8.7098106e-15
-2.8482971e-15
-1.0288616e-14
-2.4461052e-15
-6.2901667e-15
-2.23304e-15
-7.5035497e-15
-1.8001319e-15
-4.5605641e-15
-1.7120932e-15
-5.447936e-15
-1.2238396e-15
-3.2865018e-15
-1.5833715e-15
-3.8600834e-15
-8.619115e-16
-2.3537695e-15
-1.3206121e-15
-2.6477826e-15
-5.3729836e-16
-1.7182928e-15
-1.0730453e-15
-1.9228508e-15
-2.422336e-16
-1.3436053e-15
-8.3437128e-16
-1.4806567e-15
2.6961709e-17
-1.0251791e-15
-7.6747482e-16
-9.6240384e-16
2.6808146e-16
-7.4844106e-16
-7.0149405e-16
-8.3847045e-16
3.1259842e-16
-6.6941667e-16
-6.3827125e-16
-5.8610292e-16
3.465269e-16
-4.400519e-16
-4.1673267e-16
-5.2270401e-16
4.2331865e-16
-3.8606758e-16
-3.0914739e-16
-4.6948628e-16
4.1901396e-16
-3.3726273e-16
-2.3587725e-16
-4.0786503e-16
3.8842523e-16
-2.8808462e-16
-1.5949167e-16
-3.2546934e-16
2.9742303e-16
-2.3881761e-16
-9.8073435e-17
-2.3157843e-16
1.8797621e-16
-1.8891341e-16
-9.0672656e-17
-3.1378712e-16
6.989656e-17
-1.4151428e-16
-4.4830418e-17
-2.6969055e-16
-1.4243856e-19
-1.1347577e-16
7.2553462e-18
-1.3788496e-16
6.085753e-19
5.2183749e-17
1.0947098e-16
-1.2189038e-16
9.3199751e-17
-3.6130827e-17
2.759946e-16
-3.12855e-16
2.9290524e-16
-7.1173762e-17
4.5523856e-16
-5.5984418e-16
-1.4077354e-10
-1.5334878e-11
-8.7870919e-11
2.3262115e-11
-2.6127722e-12
-3.2085705e-11
-2.2363633e-11
-1.6785757e-11
3.1530205e-11
-3.1132501e-11
1.1255647e-12
-3.4419643e-11
3.6011331e-11
-2.3026617e-11
1.5366053e-11
-3.5339681e-11
3.8547902e-11
-1.1396047e-11
2.4029781e-11
-2.750889e-11
3.8410141e-11
-1.244631e-12
2.5550586e-11
-1.7295446e-11
3.7334215e-11
6.3279894e-12
2.6554821e-11
-7.4645672e-12
3.3225907e-11
1.0981806e-11
2.512694e-11
9.8148691e-14
2.7942913e-11
1.318875e-11
2.2034535e-11
5.1431943e-12
2.2194729e-11
1.3602504e-11
1.8296079e-11
8.0032952e-12
1.6587351e-11
1.2844593e-11
1.4488505e-11
9.1941137e-12
1.1854747e-11
1.143165e-11
1.0997589e-11
9.2356148e-12
7.9900545e-12
9.7334178e-12
8.0240677e-12
8.5510554e-12
5.0098654e-12
7.9972543e-12
5.6023471e-12
7.490805e-12
2.8513063e-12
6.3731938e-12
3.7389942e-12
6.3040027e-12
1.3713118e-12
4.9374474e-12
2.3737168e-12
5.130665e-12
4.2222114e-13
3.7328846e-12
1.4164719e-12
4.0538471e-12
-1.3582906e-13
2.7430813e-12
7.7639733e-13
3.1141928e-12
-4.2175129e-13
1.9595365e-12
3.7084864e-13
2.3288185e-12
-5.2921796e-13
1.3690673e-12
1.3097955e-13
1.6972175e-12
-5.2892972e-13
9.2460831e-13
2.2064783e-15
1.20441e-12
-4.7046929e-13
6.0277259e-13
-5.6248266e-14
8.305524e-13
-3.8688253e-13
3.7458918e-13
-7.2949156e-14
5.5294069e-13
-2.9886571e-13
2.1636097e-13
-6.7502604e-14
3.5199456e-13
-2.1817424e-13
1.1039869e-13
-5.1898637e-14
2.1045617e-13
-1.4987877e-13
4.2130578e-14
-3.4154994e-14
1.1389746e-13
-9.5775035e-14
5.0148271e-16
-1.7663751e-14
5.0228932e-14
-5.5209645e-14
-2.2827234e-14
-4.3456784e-15
1.0437771e-14
-2.6362495e-14
-3.4098315e-14
5.3289776e-15
-1.2904786e-14
-7.035041e-15
-3.7693112e-14
1.161217e-14
-2.5159244e-14
4.9922136e-15
-3.6661791e-14
1.5090666e-14
-2.9956859e-14
1.1672411e-14
-3.3055715e-14
1.6450498e-14
-3.0521202e-14
1.4632375e-14
-2.839755e-14
1.6292622e-14
-2.8476424e-14
1.5133944e-14
-2.3451663e-14
1.5181645e-14
-2.4960482e-14
1.4177927e-14
-1.8804342e-14
1.3492509e-14
-2.1379307e-14
1.2507015e-14
-1.4753601e-14
1.1531794e-14
-1.748138e-14
1.0522393e-14
-1.1133792e-14
9.720052e-15
-1.4054732e-14
8.5391316e-15
-8.2837834e-15
7.7934572e-15
-1.1048467e-14
6.6434814e-15
-6.00103e-15
6.1261381e-15
-8.5066873e-15
5.0455722e-15
-4.2603755e-15
4.9021024e-15
-6.4252795e-15
3.7595871e-15
-2.9588537e-15
3.623507e-15
-4.7627752e-15
2.7784598e-15
-2.0328617e-15
2.6204074e-15
-3.5346468e-15
2.0897263e-15
-1.3788951e-15
1.8847445e-15
-2.3659649e-15
1.6735906e-15
-8.2935787e-16
1.2346367e-15
-1.8252143e-15
1.1692063e-15
-6.8875998e-16
6.608313e-16
-1.0525767e-15
1.0599163e-15
-4.3286639e-16
4.8151558e-16
-6.9548822e-16
8.2930549e-16
-3.7799883e-16
1.8498652e-16
-5.6955583e-16
9.5481411e-16
-3.4791284e-16
-6.8777777e-17
-3.1770823e-16
9.1964889e-16
-3.2595477e-16
-1.2014167e-16
-2.6654427e-16
7.7819028e-16
-1.3830587e-16
-1.7803463e-16
-4.0603188e-16
7.4199199e-16
-2.8460799e-16
-1.9240961e-16
-3.7749154e-16
7.0259483e-16
-2.6911905e-16
-1.7068275e-16
-1.6658811e-16
5.9867851e-16
-8.4129347e-17
-1.4813219e-16
-2.7199005e-16
4.7190415e-16
-5.9649264e-17
-1.3295943e-16
-1.927561e-16
3.2718855e-16
-3.2473449e-17
-1.0624018e-16
-1.1398776e-16
1.8066718e-16
-8.3040513e-19
-6.0978958e-17
-7.9633951e-17
7.6610336e-17
2.3051178e-17
4.5084949e-19
3.9393601e-17
6.5987742e-17
2.7074612e-17
1.0814683e-16
-1.1212552e-16
1.5938341e-16
-3.0462377e-17
2.9202572e-16
-2.9774659e-16
3.5372281e-16
-7.0616e-17
4.5313e-16
-5.4298104e-16
6.6854978e-10
1.427426e-10
8.8430324e-11
7.7731735e-11
-3.8039572e-10
2.4254386e-11
1.1606733e-11
5.337419e-11
-3.9305948e-10
-6.6316183e-11
-4.813642e-11
-2.5749166e-11
-2.8473533e-10
-7.8216327e-11
-6.240766e-11
-5.5152261e-11
-1.7724275e-10
-6.7043448e-11
-5.1469545e-11
-4.9583393e-11
-1.0910576e-10
-4.6259037e-11
-4.2417232e-11
-3.2286837e-11
-3.7507963e-11
-2.6677359e-11
-2.1245612e-11
-1.543709e-11
1.7141261e-12
-1.3511646e-11
-5.4624235e-12
-4.8941541e-12
1.8734898e-11
-5.5659671e-12
4.220642e-12
7.0941488e-13
2.5182812e-11
-8.6180409e-13
9.8384758e-12
3.4538009e-12
2.6444826e-11
1.9038859e-12
1.2620199e-11
4.6849765e-12
2.5273957e-11
3.4362244e-12
1.347293e-11
5.1664524e-12
2.2722304e-11
4.1247519e-12
1.3036191e-11
5.2552511e-12
1.962833e-11
4.2464872e-12
1.1783272e-11
4.9435039e-12
1.643486e-11
4.0212631e-12
1.0174931e-11
4.3097307e-12
1.33979e-11
3.6287986e-12
8.4933797e-12
3.6154854e-12
1.067156e-11
3.1472924e-12
6.898279e-12
2.9664331e-12
8.3302924e-12
2.66748e-12
5.4778347e-12
2.4067258e-12
6.3890137e-12
2.2309224e-12
4.267961e-12
1.9603707e-12
4.8226093e-12
1.8182425e-12
3.2693645e-12
1.5909225e-12
3.5869166e-12
1.461285e-12
2.4660531e-12
1.2695806e-12
2.63179e-12
1.1615385e-12
1.8340927e-12
1.0095837e-12
1.9072133e-12
9.1801747e-13
1.3466288e-12
8.0374306e-13
1.3660714e-12
7.2329408e-13
9.7720727e-13
6.406213e-13
9.6769146e-13
5.6830682e-13
7.0135302e-13
5.1058953e-13
6.7817637e-13
4.4528485e-13
4.9830123e-13
4.0689425e-13
4.7061847e-13
3.4800764e-13
3.5058864e-13
3.2359786e-13
3.2338389e-13
2.7084841e-13
2.4445416e-13
2.5657839e-13
2.201734e-13
2.1022009e-13
1.6903939e-13
2.0287293e-13
1.4865062e-13
1.6230277e-13
1.1599626e-13
1.595536e-13
9.9650859e-14
1.2477989e-13
7.9055045e-14
1.2479618e-13
6.6433394e-14
9.5273924e-14
5.3583232e-14
9.7128582e-14
4.4153222e-14
7.2287558e-14
3.6148382e-14
7.5239042e-14
2.9377445e-14
5.4655293e-14
2.4376175e-14
5.7764848e-14
1.9660569e-14
4.0845604e-14
1.6446389e-14
4.4262882e-14
1.3437361e-14
3.0432318e-14
1.1130124e-14
3.35504e-14
9.2860647e-15
2.2525914e-14
7.6753298e-15
2.5270599e-14
6.4871165e-15
1.6523064e-14
5.4603336e-15
1.8882653e-14
4.6240997e-15
1.2034531e-14
3.9503762e-15
1.4005522e-14
3.3671581e-15
8.7098106e-15
2.8482971e-15
1.0288616e-14
2.4461052e-15
6.2901666e-15
2.2330399e-15
7.5035497e-15
1.8001319e-15
4.5605641e-15
1.7120932e-15
5.447936e-15
1.2238396e-15
3.2865018e-15
1.5833716e-15
3.8600834e-15
8.6191151e-16
2.3537696e-15
1.3206121e-15
2.6477826e-15
5.3729836e-16
1.7182928e-15
1.0730453e-15
1.9228508e-15
2.4223361e-16
1.3436053e-15
8.3437128e-16
1.4806567e-15
-2.6961705e-17
1.0251791e-15
7.6747481e-16
9.6240383e-16
-2.6808146e-16
7.4844106e-16
7.0149404e-16
8.3847045e-16
-3.1259842e-16
6.6941667e-16
6.3827125e-16
5.8610293e-16
-3.465269e-16
4.400519e-16
4.1673267e-16
5.2270401e-16
-4.2331865e-16
3.8606758e-16
3.091474e-16
4.6948628e-16
-4.1901396e-16
3.3726273e-16
2.3587725e-16
4.0786503e-16
-3.8842523e-16
2.8808461e-16
1.5949167e-16
3.2546934e-16
-2.9742303e-16
2.388176e-16
9.8073437e-17
2.3157844e-16
-1.8797621e-16
1.8891341e-16
9.0672656e-17
3.1378712e-16
-6.9896561e-17
1.4151428e-16
4.4830412e-17
2.6969054e-16
1.4244513e-19
1.1347577e-16
-7.2553462e-18
1.3788497e-16
-6.0857398e-19
-5.218375e-17
-1.0947097e-16
1.2189039e-16
-9.3199751e-17
3.6130827e-17
-2.759946e-16
3.1285499e-16
-2.9290524e-16
7.1173762e-17
-4.5523856e-16
5.5984418e-16
)
;

boundaryField
{
    movingWall
    {
        type            calculated;
        value           nonuniform List<scalar> 
16
(
-4.9898881e-16
4.4584878e-16
4.9898881e-16
-4.4584878e-16
1.0703564e-16
-1.094633e-16
-1.0703564e-16
1.094633e-16
-5.2601743e-16
5.5729787e-16
5.2601743e-16
-5.5729787e-16
7.2243099e-16
-7.4044086e-16
-7.2243099e-16
7.4044088e-16
)
;
    }
    CPLReceiveMD
    {
        type            calculated;
        value           nonuniform List<scalar> 
16
(
2.532149e-10
-1.4755171e-09
-2.532149e-10
1.4755171e-09
1.0084911e-11
-1.8271286e-10
-1.0084911e-11
1.8271286e-10
1.4057675e-10
-1.3398415e-10
-1.4057675e-10
1.3398415e-10
-4.5620814e-11
-5.0009218e-11
4.5620814e-11
5.0009218e-11
)
;
    }
    streamwiseIn
    {
        type            cyclic;
    }
    streamwiseOut
    {
        type            cyclic;
    }
    front
    {
        type            cyclic;
    }
    back
    {
        type            cyclic;
    }
}


// ************************************************************************* //
