/*--------------------------------*- C++ -*----------------------------------*\
| =========                 |                                                 |
| \\      /  F ield         | OpenFOAM: The Open Source CFD Toolbox           |
|  \\    /   O peration     | Version:  3.0.x                                 |
|   \\  /    A nd           | Web:      www.OpenFOAM.org                      |
|    \\/     M anipulation  |                                                 |
\*---------------------------------------------------------------------------*/
FoamFile
{
    version     2.0;
    format      ascii;
    class       volScalarField;
    location    "400";
    object      sigmaxy;
}
// * * * * * * * * * * * * * * * * * * * * * * * * * * * * * * * * * * * * * //

dimensions      [0 2 -2 0 0 0 0];

internalField   nonuniform List<scalar> 
960
(
0.047804363
0.04780431
0.047804312
0.047804339
0.002493051
0.0024930548
0.0024930536
0.0024930477
-0.0012489932
-0.0012489756
-0.0012489782
-0.0012489857
-0.00066855734
-0.00066851001
-0.00066851235
-0.00066855194
0.00020577975
0.00020575987
0.00020575631
0.00020578729
0.00093530562
0.00093527863
0.00093527583
0.00093530435
0.001462762
0.001462739
0.0014627364
0.0014627592
0.0018288752
0.0018288569
0.0018288544
0.001828872
0.0020949871
0.0020949733
0.0020949707
0.0020949837
0.0023106532
0.0023106416
0.0023106385
0.0023106504
0.0025078233
0.0025078113
0.0025078083
0.0025078203
0.0027048359
0.0027048237
0.0027048205
0.0027048321
0.0029118477
0.0029118356
0.0029118314
0.0029118448
0.0031348267
0.0031348137
0.0031348092
0.0031348242
0.0033776878
0.0033776736
0.0033776687
0.0033776842
0.0036431137
0.0036430987
0.0036430942
0.0036431098
0.0039327572
0.0039327424
0.0039327368
0.0039327536
0.0042472919
0.0042472764
0.0042472703
0.0042472885
0.0045865361
0.0045865202
0.0045865138
0.0045865323
0.0049496729
0.0049496576
0.00494965
0.0049496693
0.0053355095
0.0053354936
0.0053354862
0.0053355054
0.0057427064
0.0057426907
0.0057426822
0.0057427019
0.0061699478
0.0061699325
0.0061699242
0.0061699436
0.0066160398
0.0066160255
0.0066160168
0.0066160351
0.0070799353
0.0070799227
0.0070799123
0.0070799301
0.0075607176
0.0075607062
0.007560696
0.0075607127
0.0080575565
0.0080575463
0.0080575358
0.0080575512
0.0085696488
0.0085696405
0.0085696296
0.0085696438
0.0090961662
0.0090961593
0.0090961487
0.0090961616
0.0096362052
0.0096361997
0.0096361889
0.009636201
0.010188751
0.010188747
0.010188733
0.010188745
0.010752642
0.010752644
0.010752631
0.01075264
0.011326572
0.011326573
0.011326563
0.011326575
0.01190908
0.011909076
0.011909067
0.011909077
0.012498523
0.012498528
0.012498519
0.012498514
0.013093105
0.013093112
0.013093104
0.013093104
0.013690897
0.013690899
0.013690891
0.013690896
0.014289812
0.014289822
0.014289815
0.014289812
0.014887656
0.014887669
0.014887663
0.014887664
0.015482126
0.015482133
0.015482122
0.015482128
0.016070796
0.016070812
0.016070802
0.016070799
0.01665121
0.016651221
0.016651219
0.016651208
0.017220831
0.017220837
0.017220837
0.017220831
0.017777078
0.017777092
0.017777094
0.017777086
0.01831738
0.018317395
0.018317399
0.018317383
0.018839155
0.018839172
0.018839177
0.018839167
0.019339854
0.019339865
0.019339873
0.019339862
0.019816954
0.019816966
0.019816975
0.019816957
0.020268024
0.020268036
0.020268047
0.020268035
0.020690727
0.020690739
0.020690744
0.020690732
0.021082809
0.02108282
0.021082826
0.021082808
0.02144217
0.021442174
0.021442188
0.02144217
0.021766856
0.021766859
0.021766866
0.021766857
0.02205507
0.022055072
0.022055078
0.022055064
0.022305208
0.022305207
0.022305219
0.022305199
0.022515874
0.022515865
0.022515881
0.022515871
0.022685868
0.022685856
0.02268587
0.022685856
0.022814211
0.02281421
0.022814221
0.022814203
0.022900184
0.022900193
0.022900215
0.022900193
0.022943296
0.022943303
0.022943343
0.022943303
0.04780434
0.047804289
0.047804289
0.047804315
0.0024930483
0.0024930528
0.0024930519
0.0024930458
-0.0012489841
-0.0012489673
-0.0012489692
-0.0012489762
-0.00066855233
-0.00066850507
-0.00066850698
-0.00066854586
0.00020579079
0.00020576974
0.00020576641
0.00020579843
0.00093530724
0.00093527962
0.00093527692
0.0009353058
0.0014627618
0.0014627386
0.001462736
0.0014627588
0.0018288745
0.0018288562
0.0018288537
0.0018288711
0.0020949862
0.0020949724
0.0020949692
0.0020949832
0.0023106528
0.0023106405
0.0023106374
0.0023106491
0.0025078227
0.0025078106
0.0025078083
0.002507819
0.0027048346
0.0027048231
0.0027048198
0.002704832
0.0029118477
0.0029118356
0.0029118314
0.0029118442
0.0031348267
0.0031348137
0.0031348092
0.0031348235
0.0033776871
0.0033776729
0.003377668
0.0033776842
0.0036431131
0.0036430987
0.0036430941
0.0036431098
0.0039327572
0.0039327424
0.0039327368
0.0039327536
0.0042472919
0.0042472764
0.0042472703
0.0042472885
0.0045865355
0.0045865202
0.0045865137
0.0045865323
0.0049496736
0.0049496576
0.00494965
0.0049496693
0.0053355102
0.0053354936
0.0053354862
0.0053355054
0.0057427064
0.0057426907
0.0057426822
0.0057427018
0.0061699479
0.0061699331
0.0061699242
0.0061699435
0.0066160398
0.0066160261
0.0066160167
0.006616035
0.0070799353
0.0070799221
0.0070799129
0.0070799308
0.0075607176
0.0075607056
0.007560696
0.0075607127
0.0080575565
0.0080575463
0.0080575351
0.0080575512
0.0085696488
0.0085696406
0.0085696296
0.0085696445
0.0090961662
0.00909616
0.0090961487
0.0090961616
0.0096362059
0.0096362003
0.0096361889
0.009636201
0.010188753
0.010188748
0.010188735
0.010188746
0.010752644
0.010752639
0.010752626
0.010752641
0.011326572
0.011326573
0.011326563
0.011326575
0.01190908
0.011909083
0.011909074
0.011909077
0.012498523
0.012498528
0.012498513
0.012498514
0.013093105
0.013093112
0.013093104
0.013093104
0.013690897
0.013690899
0.013690898
0.013690896
0.014289812
0.014289822
0.014289815
0.014289812
0.014887656
0.014887669
0.014887663
0.014887664
0.015482126
0.015482133
0.015482122
0.015482128
0.016070796
0.016070812
0.016070802
0.016070799
0.01665121
0.016651221
0.016651219
0.016651208
0.017220831
0.017220837
0.017220837
0.017220831
0.017777078
0.017777092
0.017777094
0.017777086
0.01831738
0.018317395
0.018317399
0.01831739
0.018839162
0.018839172
0.018839177
0.018839167
0.019339854
0.019339865
0.019339873
0.019339855
0.019816954
0.019816966
0.019816975
0.019816957
0.020268024
0.020268043
0.020268047
0.020268035
0.020690727
0.020690739
0.020690744
0.020690732
0.021082815
0.021082814
0.021082826
0.021082808
0.02144217
0.021442181
0.021442188
0.02144217
0.02176685
0.021766859
0.021766866
0.021766857
0.02205507
0.022055065
0.022055078
0.02205507
0.022305214
0.022305207
0.022305219
0.022305206
0.022515868
0.022515872
0.022515881
0.022515864
0.022685861
0.022685863
0.02268587
0.022685856
0.022814211
0.022814203
0.022814228
0.022814203
0.022900184
0.022900186
0.022900215
0.022900186
0.022943296
0.022943303
0.022943337
0.022943303
0.047804363
0.047804311
0.047804312
0.047804339
0.0024930511
0.0024930544
0.0024930536
0.0024930481
-0.0012489931
-0.001248976
-0.0012489783
-0.0012489854
-0.00066855726
-0.00066851017
-0.00066851229
-0.00066855165
0.00020577976
0.0002057598
0.0002057563
0.00020578743
0.00093530563
0.0009352785
0.00093527576
0.00093530435
0.001462762
0.0014627389
0.0014627364
0.0014627592
0.0018288752
0.0018288569
0.0018288544
0.0018288721
0.0020949871
0.0020949734
0.0020949707
0.0020949837
0.0023106532
0.0023106417
0.0023106385
0.0023106503
0.0025078233
0.0025078113
0.0025078083
0.0025078203
0.0027048359
0.0027048237
0.0027048205
0.002704832
0.0029118477
0.0029118356
0.0029118314
0.0029118448
0.0031348267
0.0031348137
0.0031348092
0.0031348242
0.0033776878
0.0033776736
0.0033776687
0.0033776842
0.0036431137
0.0036430987
0.0036430942
0.0036431098
0.0039327572
0.0039327424
0.0039327368
0.0039327536
0.0042472919
0.0042472764
0.0042472703
0.0042472885
0.0045865361
0.0045865202
0.0045865138
0.0045865323
0.0049496729
0.0049496576
0.00494965
0.0049496693
0.0053355095
0.0053354936
0.0053354862
0.0053355054
0.0057427064
0.0057426907
0.0057426822
0.0057427019
0.0061699478
0.0061699325
0.0061699242
0.0061699436
0.0066160398
0.0066160255
0.0066160168
0.0066160351
0.0070799353
0.0070799227
0.0070799123
0.0070799301
0.0075607176
0.0075607062
0.007560696
0.0075607127
0.0080575565
0.0080575463
0.0080575358
0.0080575512
0.0085696488
0.0085696405
0.0085696296
0.0085696438
0.0090961662
0.0090961593
0.0090961487
0.0090961616
0.0096362052
0.0096361997
0.0096361889
0.009636201
0.010188751
0.010188747
0.010188733
0.010188745
0.010752642
0.010752644
0.010752631
0.01075264
0.011326572
0.011326573
0.011326563
0.011326575
0.01190908
0.011909076
0.011909067
0.011909077
0.012498523
0.012498528
0.012498519
0.012498514
0.013093105
0.013093112
0.013093104
0.013093104
0.013690897
0.013690899
0.013690891
0.013690896
0.014289812
0.014289822
0.014289815
0.014289812
0.014887656
0.014887669
0.014887663
0.014887664
0.015482126
0.015482133
0.015482122
0.015482128
0.016070796
0.016070812
0.016070802
0.016070799
0.01665121
0.016651221
0.016651219
0.016651208
0.017220831
0.017220837
0.017220837
0.017220831
0.017777078
0.017777092
0.017777094
0.017777086
0.01831738
0.018317395
0.018317399
0.018317383
0.018839155
0.018839172
0.018839177
0.018839167
0.019339854
0.019339865
0.019339873
0.019339862
0.019816954
0.019816966
0.019816975
0.019816957
0.020268024
0.020268036
0.020268047
0.020268035
0.020690727
0.020690739
0.020690744
0.020690732
0.021082809
0.02108282
0.021082826
0.021082808
0.02144217
0.021442174
0.021442188
0.02144217
0.021766856
0.021766859
0.021766866
0.021766857
0.02205507
0.022055072
0.022055078
0.022055064
0.022305208
0.022305207
0.022305219
0.022305199
0.022515874
0.022515865
0.022515881
0.022515871
0.022685868
0.022685856
0.02268587
0.022685856
0.022814211
0.02281421
0.022814221
0.022814203
0.022900184
0.022900193
0.022900215
0.022900193
0.022943296
0.022943303
0.022943343
0.022943303
0.04780434
0.047804289
0.047804289
0.047804315
0.0024930483
0.0024930528
0.002493052
0.0024930458
-0.0012489841
-0.0012489673
-0.0012489692
-0.0012489761
-0.00066855226
-0.00066850514
-0.00066850706
-0.00066854585
0.0002057908
0.00020576967
0.0002057664
0.00020579843
0.00093530725
0.00093527962
0.00093527698
0.0009353058
0.0014627618
0.0014627385
0.001462736
0.0014627588
0.0018288745
0.0018288562
0.0018288536
0.0018288711
0.0020949862
0.0020949724
0.0020949692
0.0020949832
0.0023106528
0.0023106405
0.0023106374
0.0023106491
0.0025078227
0.0025078106
0.0025078083
0.002507819
0.0027048346
0.0027048231
0.0027048198
0.002704832
0.0029118477
0.0029118356
0.0029118314
0.0029118442
0.0031348267
0.0031348137
0.0031348092
0.0031348235
0.0033776871
0.0033776729
0.003377668
0.0033776842
0.0036431131
0.0036430987
0.0036430941
0.0036431098
0.0039327572
0.0039327424
0.0039327368
0.0039327536
0.0042472919
0.0042472764
0.0042472703
0.0042472885
0.0045865355
0.0045865202
0.0045865137
0.0045865323
0.0049496736
0.0049496576
0.00494965
0.0049496693
0.0053355102
0.0053354936
0.0053354862
0.0053355054
0.0057427064
0.0057426907
0.0057426822
0.0057427018
0.0061699479
0.0061699331
0.0061699242
0.0061699435
0.0066160398
0.0066160261
0.0066160167
0.006616035
0.0070799353
0.0070799221
0.0070799129
0.0070799308
0.0075607176
0.0075607056
0.007560696
0.0075607127
0.0080575565
0.0080575463
0.0080575351
0.0080575512
0.0085696488
0.0085696406
0.0085696296
0.0085696445
0.0090961662
0.00909616
0.0090961487
0.0090961616
0.0096362059
0.0096362003
0.0096361889
0.009636201
0.010188753
0.010188748
0.010188735
0.010188746
0.010752644
0.010752639
0.010752626
0.010752641
0.011326572
0.011326573
0.011326563
0.011326575
0.01190908
0.011909083
0.011909074
0.011909077
0.012498523
0.012498528
0.012498513
0.012498514
0.013093105
0.013093112
0.013093104
0.013093104
0.013690897
0.013690899
0.013690898
0.013690896
0.014289812
0.014289822
0.014289815
0.014289812
0.014887656
0.014887669
0.014887663
0.014887664
0.015482126
0.015482133
0.015482122
0.015482128
0.016070796
0.016070812
0.016070802
0.016070799
0.01665121
0.016651221
0.016651219
0.016651208
0.017220831
0.017220837
0.017220837
0.017220831
0.017777078
0.017777092
0.017777094
0.017777086
0.01831738
0.018317395
0.018317399
0.01831739
0.018839162
0.018839172
0.018839177
0.018839167
0.019339854
0.019339865
0.019339873
0.019339855
0.019816954
0.019816966
0.019816975
0.019816957
0.020268024
0.020268043
0.020268047
0.020268035
0.020690727
0.020690739
0.020690744
0.020690732
0.021082815
0.021082814
0.021082826
0.021082808
0.02144217
0.021442181
0.021442188
0.02144217
0.02176685
0.021766859
0.021766866
0.021766857
0.02205507
0.022055065
0.022055078
0.02205507
0.022305214
0.022305207
0.022305219
0.022305206
0.022515868
0.022515872
0.022515881
0.022515864
0.022685861
0.022685863
0.02268587
0.022685856
0.022814211
0.022814203
0.022814228
0.022814203
0.022900184
0.022900186
0.022900215
0.022900186
0.022943296
0.022943303
0.022943337
0.022943303
)
;

boundaryField
{
    movingWall
    {
        type            calculated;
        value           nonuniform List<scalar> 
16
(
0.022954088
0.022954088
0.022954088
0.022954088
0.022954089
0.022954089
0.022954089
0.022954089
0.022954143
0.022954143
0.022954143
0.022954143
0.022954089
0.022954089
0.022954089
0.022954089
)
;
    }
    CPLReceiveMD
    {
        type            calculated;
        value           nonuniform List<scalar> 
16
(
0.089250047
0.089250032
0.089250046
0.089250032
0.089249858
0.089249844
0.08924986
0.089249844
0.089249859
0.089249842
0.089249859
0.089249842
0.089250025
0.089250007
0.089250024
0.089250007
)
;
    }
    streamwiseIn
    {
        type            cyclic;
    }
    streamwiseOut
    {
        type            cyclic;
    }
    front
    {
        type            cyclic;
    }
    back
    {
        type            cyclic;
    }
}


// ************************************************************************* //
