/*--------------------------------*- C++ -*----------------------------------*\
| =========                 |                                                 |
| \\      /  F ield         | OpenFOAM: The Open Source CFD Toolbox           |
|  \\    /   O peration     | Version:  3.0.1                                 |
|   \\  /    A nd           | Web:      www.OpenFOAM.org                      |
|    \\/     M anipulation  |                                                 |
\*---------------------------------------------------------------------------*/
FoamFile
{
    version     2.0;
    format      ascii;
    class       volScalarField;
    location    "200";
    object      p;
}
// * * * * * * * * * * * * * * * * * * * * * * * * * * * * * * * * * * * * * //

dimensions      [0 2 -2 0 0 0 0];

internalField   nonuniform List<scalar> 
480
(
3.4528412e-08
3.9212858e-08
8.7910456e-08
8.7672732e-08
3.7955196e-08
4.1081575e-08
8.369243e-08
8.5508492e-08
3.9637343e-08
4.1110558e-08
7.9444245e-08
8.3158257e-08
4.4272394e-08
4.4251554e-08
7.1450777e-08
7.6188896e-08
4.5703884e-08
4.5415375e-08
6.603865e-08
7.024536e-08
4.4990037e-08
4.4918727e-08
6.2229698e-08
6.5251866e-08
4.3216715e-08
4.3497946e-08
5.8841751e-08
6.0590369e-08
4.0854233e-08
4.1396408e-08
5.5540576e-08
5.61845e-08
3.8278446e-08
3.8886151e-08
5.2217448e-08
5.2031807e-08
3.5742537e-08
3.6217132e-08
4.8958445e-08
4.8190877e-08
3.3384001e-08
3.358902e-08
4.5930871e-08
4.4782331e-08
3.1287527e-08
3.1150886e-08
4.3305166e-08
4.1908757e-08
2.9510988e-08
2.9000775e-08
4.1222227e-08
3.9659356e-08
2.8094185e-08
2.7203562e-08
3.9780134e-08
3.8106027e-08
2.7063302e-08
2.5794348e-08
3.9037156e-08
3.729519e-08
2.6429588e-08
2.4783105e-08
3.9011563e-08
3.7245551e-08
2.6186941e-08
2.4159511e-08
3.9689919e-08
3.7949044e-08
2.6311216e-08
2.3896565e-08
4.1032053e-08
3.9373127e-08
2.6759096e-08
2.3947647e-08
4.2974992e-08
4.1463399e-08
2.7468187e-08
2.4249835e-08
4.5436401e-08
4.4146328e-08
2.8358903e-08
2.4725913e-08
4.8317706e-08
4.7331957e-08
2.9340797e-08
2.5287492e-08
5.1507519e-08
5.0917436e-08
3.031521e-08
2.583731e-08
5.4885061e-08
5.4789675e-08
3.1179419e-08
2.6272472e-08
5.8323633e-08
5.8827907e-08
3.1830911e-08
2.6488069e-08
6.1694314e-08
6.2906816e-08
3.2171403e-08
2.6380304e-08
6.4869706e-08
6.6898819e-08
3.2110606e-08
2.5850936e-08
6.7727524e-08
7.0680222e-08
3.1569773e-08
2.4810663e-08
7.0153759e-08
7.4132119e-08
3.0483285e-08
2.3181917e-08
7.204545e-08
7.7144109e-08
2.8801201e-08
2.0901732e-08
7.3313147e-08
7.9616931e-08
2.6490362e-08
1.7923997e-08
7.3882721e-08
8.1464881e-08
2.3534896e-08
1.4221115e-08
7.3696629e-08
8.2617649e-08
1.9936157e-08
9.7847714e-09
7.2714635e-08
8.3021486e-08
1.5712103e-08
4.6266165e-09
7.0914033e-08
8.2639786e-08
1.0896139e-08
-1.2223818e-09
6.8289401e-08
8.1452979e-08
5.5356264e-09
-7.7129581e-09
6.4852096e-08
7.9457956e-08
-3.0998108e-10
-1.477914e-08
6.0628919e-08
7.6667006e-08
-6.5712092e-09
-2.2340254e-08
5.566101e-08
7.3106445e-08
-1.3170752e-08
-3.0303322e-08
5.0002347e-08
6.8815041e-08
-2.0025711e-08
-3.8565732e-08
4.3718048e-08
6.3842335e-08
-2.704983e-08
-4.70181e-08
3.6882563e-08
5.8246975e-08
-3.4155565e-08
-5.5547249e-08
2.957768e-08
5.2095122e-08
-4.1256098e-08
-6.4039271e-08
2.1890751e-08
4.5459027e-08
-4.8267133e-08
-7.2382574e-08
1.3912646e-08
3.8415775e-08
-5.5108538e-08
-8.047095e-08
5.7359149e-09
3.1046349e-08
-6.1705798e-08
-8.8206572e-08
-2.5468966e-09
2.3435035e-08
-6.7991268e-08
-9.5502916e-08
-1.0844657e-08
1.5669057e-08
-7.3905256e-08
-1.0228752e-07
-1.9068613e-08
7.8391684e-09
-7.9396929e-08
-1.0850455e-07
-2.7132754e-08
4.0490378e-11
-8.4425132e-08
-1.1411718e-07
-3.4953451e-08
-7.6256509e-09
-8.8959033e-08
-1.1910963e-07
-4.2448289e-08
-1.5049119e-08
-9.2978928e-08
-1.2348908e-07
-4.9534221e-08
-2.2107836e-08
-9.6477335e-08
-1.2728807e-07
-5.6125264e-08
-2.866389e-08
-9.9460637e-08
-1.3056826e-07
-6.2130304e-08
-3.4558834e-08
-1.019507e-07
-1.334236e-07
-6.7452266e-08
-3.961149e-08
-1.0398448e-07
-1.3597078e-07
-7.1990991e-08
-4.3630729e-08
-1.0561481e-07
-1.3833471e-07
-7.5645754e-08
-4.6434972e-08
-1.0693917e-07
-1.4077274e-07
-7.8289581e-08
-4.7734996e-08
-1.0817689e-07
-1.440909e-07
-7.9706646e-08
-4.6733399e-08
-1.0955573e-07
-1.4915384e-07
-7.9772574e-08
-4.2664843e-08
3.4286826e-08
3.4262097e-08
8.8088358e-08
8.5621591e-08
3.9526707e-08
3.5221354e-08
8.3404192e-08
8.3080048e-08
4.2168211e-08
3.5649834e-08
7.9592325e-08
8.0825322e-08
4.7547682e-08
3.9916299e-08
7.1710223e-08
7.3975428e-08
4.9139642e-08
4.2026191e-08
6.6534817e-08
6.8463275e-08
4.8287458e-08
4.2513324e-08
6.2629643e-08
6.3723904e-08
4.6116953e-08
4.1986428e-08
5.9036682e-08
5.9267609e-08
4.3145947e-08
4.0667473e-08
5.5520298e-08
5.5101017e-08
3.9830494e-08
3.8815568e-08
5.2033563e-08
5.1270002e-08
3.6464447e-08
3.6663359e-08
4.8674912e-08
4.7853167e-08
3.3252625e-08
3.4411817e-08
4.5601954e-08
4.493306e-08
3.0337538e-08
3.2225859e-08
4.2970091e-08
4.2596917e-08
2.7813087e-08
3.023399e-08
4.0904581e-08
4.0912038e-08
2.5738118e-08
2.8527095e-08
3.9495247e-08
3.9922674e-08
2.414246e-08
2.7159839e-08
3.8792745e-08
3.9651379e-08
2.3032146e-08
2.6156607e-08
3.8816106e-08
4.0099612e-08
2.2393015e-08
2.5512844e-08
3.9553785e-08
4.124735e-08
2.2191926e-08
2.5203478e-08
4.096757e-08
4.3053469e-08
2.2379379e-08
2.518347e-08
4.2996113e-08
4.5456891e-08
2.2890428e-08
2.5389828e-08
4.5558354e-08
4.8378367e-08
2.3647682e-08
2.574471e-08
4.8556893e-08
5.1723067e-08
2.4564156e-08
2.6158348e-08
5.1881214e-08
5.5383489e-08
2.5545195e-08
2.6533008e-08
5.5410988e-08
5.9243058e-08
2.6491108e-08
2.676671e-08
5.9019502e-08
6.3180291e-08
2.7300044e-08
2.6756852e-08
6.2577006e-08
6.7072459e-08
2.7871197e-08
2.6404183e-08
6.5953995e-08
7.0799893e-08
2.8108116e-08
2.5616732e-08
6.9024513e-08
7.4248667e-08
2.7921499e-08
2.4311734e-08
7.1669299e-08
7.731285e-08
2.723338e-08
2.2419353e-08
7.3778839e-08
7.9897251e-08
2.5979259e-08
1.9885025e-08
7.5255926e-08
8.191945e-08
2.4110505e-08
1.6671266e-08
7.601795e-08
8.3310976e-08
2.1596012e-08
1.2758845e-08
7.5998686e-08
8.4017965e-08
1.8423073e-08
8.1475685e-09
7.5149562e-08
8.4001378e-08
1.4597478e-08
2.8558465e-09
7.344035e-08
8.3236767e-08
1.014293e-08
-3.0796897e-09
7.0859325e-08
8.1713769e-08
5.099743e-09
-9.6053299e-09
6.7412771e-08
7.9435251e-08
-4.7694718e-10
-1.665189e-08
6.3124478e-08
7.6416299e-08
-6.5193881e-09
-2.4136766e-08
5.8034421e-08
7.2683045e-08
-1.2949702e-08
-3.1966296e-08
5.2197236e-08
6.8271433e-08
-1.9682487e-08
-4.0038378e-08
4.5680503e-08
6.3225971e-08
-2.662754e-08
-4.8245277e-08
3.8562858e-08
5.7598538e-08
-3.3692309e-08
-5.6476556e-08
3.0931884e-08
5.1447295e-08
-4.0784386e-08
-6.4622069e-08
2.2882172e-08
4.4835745e-08
-4.781372e-08
-7.2575016e-08
1.4513114e-08
3.7831986e-08
-5.4694631e-08
-8.0234976e-08
5.926905e-09
3.0508212e-08
-6.1347582e-08
-8.7510892e-08
-2.7733223e-09
2.2940562e-08
-6.7700707e-08
-9.4323966e-08
-1.1485077e-08
1.5209167e-08
-7.369107e-08
-1.0061039e-07
-2.0107637e-08
7.3991022e-09
-7.9265644e-08
-1.0632391e-07
-2.8542568e-08
-3.9849239e-10
-8.4381965e-08
-1.1143814e-07
-3.6693507e-08
-8.0844093e-09
-8.9008622e-08
-1.1594869e-07
-4.4465187e-08
-1.5548843e-08
-9.3125507e-08
-1.1987515e-07
-5.1761826e-08
-2.2668313e-08
-9.6724212e-08
-1.2326354e-07
-5.8485243e-08
-2.9302139e-08
-9.9808871e-08
-1.2619033e-07
-6.453319e-08
-3.5287996e-08
-1.0239697e-07
-1.287654e-07
-6.9799423e-08
-4.0439607e-08
-1.045182e-07
-1.3112205e-07
-7.4177582e-08
-4.4558646e-08
-1.0621425e-07
-1.3340085e-07
-7.7564451e-08
-4.7452497e-08
-1.0756644e-07
-1.3587257e-07
-7.9834839e-08
-4.8813611e-08
-1.0877392e-07
-1.3934105e-07
-8.079422e-08
-4.7825843e-08
-1.1005564e-07
-1.4467168e-07
-8.0309906e-08
-4.3694431e-08
)
;

boundaryField
{
    movingWall
    {
        type            zeroGradient;
    }
    CPLReceiveMD
    {
        type            zeroGradient;
    }
    streamwiseIn
    {
        type            cyclic;
    }
    streamwiseOut
    {
        type            cyclic;
    }
    front
    {
        type            cyclic;
    }
    back
    {
        type            cyclic;
    }
    procBoundary1to0
    {
        type            processor;
        value           nonuniform List<scalar> 
240
(
3.1723383e-08
3.6813969e-08
8.7059749e-08
9.0141401e-08
3.6964747e-08
3.7506524e-08
8.1951187e-08
8.7404439e-08
3.9847324e-08
3.7545998e-08
7.7939787e-08
8.471026e-08
4.5486049e-08
4.1421002e-08
7.00551e-08
7.7276664e-08
4.726932e-08
4.3194163e-08
6.5015645e-08
7.1166205e-08
4.6659437e-08
4.342951e-08
6.1328545e-08
6.5882059e-08
4.4748464e-08
4.2724248e-08
5.7986685e-08
6.0964187e-08
4.207713e-08
4.1272105e-08
5.472805e-08
5.6409412e-08
3.9055329e-08
3.9309065e-08
5.147607e-08
5.2249152e-08
3.5955934e-08
3.7055796e-08
4.8320786e-08
4.8566311e-08
3.2973451e-08
3.4701672e-08
4.5415635e-08
4.5420014e-08
3.0247298e-08
3.2420848e-08
4.29134e-08
4.2889034e-08
2.7872665e-08
3.0347855e-08
4.0942441e-08
4.1039356e-08
2.5911743e-08
2.8570615e-08
3.9597405e-08
3.9914876e-08
2.4398508e-08
2.7143292e-08
3.8937308e-08
3.9538126e-08
2.3343176e-08
2.6092802e-08
3.898601e-08
3.9909495e-08
2.2734848e-08
2.5418422e-08
3.9735983e-08
4.1006767e-08
2.2543874e-08
2.5090833e-08
4.1152058e-08
4.278561e-08
2.27235e-08
2.5062546e-08
4.3175288e-08
4.5180991e-08
2.3212142e-08
2.5268707e-08
4.5726559e-08
4.8109504e-08
2.3938956e-08
2.5629624e-08
4.8710183e-08
5.1472475e-08
2.4820333e-08
2.6053614e-08
5.2017108e-08
5.5158634e-08
2.576433e-08
2.6441236e-08
5.5528255e-08
5.9048092e-08
2.6673427e-08
2.6689076e-08
5.911798e-08
6.3016659e-08
2.7447454e-08
2.669344e-08
6.2657421e-08
6.6939656e-08
2.7986831e-08
2.6354623e-08
6.6017767e-08
7.0696771e-08
2.8195856e-08
2.5579487e-08
6.9073467e-08
7.4171571e-08
2.7985601e-08
2.4284913e-08
7.1705511e-08
7.7257543e-08
2.7278191e-08
2.2400975e-08
7.3804491e-08
7.9859424e-08
2.600897e-08
1.9873178e-08
7.5273172e-08
8.1895033e-08
2.4128952e-08
1.6664211e-08
7.6028805e-08
8.3296326e-08
2.1606542e-08
1.2755085e-08
7.6004946e-08
8.4009975e-08
1.8428469e-08
8.1458749e-09
7.515275e-08
8.3997519e-08
1.4599937e-08
2.8552558e-09
7.3441696e-08
8.3235092e-08
1.0144086e-08
-3.0798824e-09
7.0859766e-08
8.1712867e-08
5.1007261e-09
-9.6055981e-09
6.7412964e-08
7.9434188e-08
-4.7544005e-10
-1.6652512e-08
6.3124858e-08
7.6414535e-08
-6.5170068e-09
-2.4137865e-08
5.8035232e-08
7.2680349e-08
-1.2946358e-08
-3.1967882e-08
5.2198567e-08
6.82678e-08
-1.9678275e-08
-4.0040382e-08
4.5682336e-08
6.3221547e-08
-2.6622667e-08
-4.8247586e-08
3.8565103e-08
5.7593558e-08
-3.3687036e-08
-5.6479036e-08
3.0934412e-08
5.1442028e-08
-4.0778987e-08
-6.4624587e-08
2.288484e-08
4.4830455e-08
-4.7808449e-08
-7.2577451e-08
1.4515782e-08
3.7826911e-08
-5.4689703e-08
-8.0237231e-08
5.9294533e-09
3.0503544e-08
-6.1343159e-08
-8.7512893e-08
-2.770991e-09
2.293644e-08
-6.7696899e-08
-9.4325666e-08
-1.1483032e-08
1.5205679e-08
-7.3687935e-08
-1.0061177e-07
-2.0105921e-08
7.3962879e-09
-7.9263197e-08
-1.0632495e-07
-2.8541197e-08
-4.0063494e-10
-8.4380182e-08
-1.1143887e-07
-3.669248e-08
-8.0859133e-09
-8.9007456e-08
-1.1594913e-07
-4.4464484e-08
-1.5549764e-08
-9.3124892e-08
-1.1987533e-07
-5.1761416e-08
-2.266872e-08
-9.6724075e-08
-1.2326352e-07
-5.8485089e-08
-2.9302108e-08
-9.9809137e-08
-1.2619012e-07
-6.453325e-08
-3.5287601e-08
-1.0239756e-07
-1.2876505e-07
-6.9799657e-08
-4.0438918e-08
-1.0451906e-07
-1.3112159e-07
-7.4177952e-08
-4.4557724e-08
-1.0621533e-07
-1.3340032e-07
-7.7564921e-08
-4.7451393e-08
-1.075677e-07
-1.3587202e-07
-7.9835382e-08
-4.8812365e-08
-1.0877534e-07
-1.3934051e-07
-8.0794816e-08
-4.7824488e-08
-1.100572e-07
-1.4467121e-07
-8.0310545e-08
-4.3693002e-08
)
;
    }
    procBoundary1to0throughback
    {
        type            processorCyclic;
        value           nonuniform List<scalar> 
240
(
2.0766843e-08
2.7259361e-08
3.1577691e-08
3.8153051e-08
4.168111e-08
4.2321966e-08
4.1473793e-08
3.9737689e-08
3.7591257e-08
3.5351549e-08
3.3201259e-08
3.1254521e-08
2.9586878e-08
2.824877e-08
2.7272927e-08
2.6674664e-08
2.6450637e-08
2.6577839e-08
2.7014285e-08
2.7702062e-08
2.8565734e-08
2.9517635e-08
3.0461407e-08
3.1296161e-08
3.1920737e-08
3.2237725e-08
3.2157195e-08
3.1600538e-08
3.0501974e-08
2.8811211e-08
2.6494617e-08
2.3535781e-08
1.9935503e-08
1.5711219e-08
1.0895871e-08
5.5364347e-09
-3.0793838e-10
-6.5679926e-09
-1.3166565e-08
-2.0020838e-08
-2.7044579e-08
-3.4150237e-08
-4.1250955e-08
-4.8262388e-08
-5.5104343e-08
-6.1702248e-08
-6.7988408e-08
-7.3903085e-08
-7.9395414e-08
-8.4424213e-08
-8.8958636e-08
-9.2978975e-08
-9.6477747e-08
-9.9461338e-08
-1.0195163e-07
-1.0398557e-07
-1.0561602e-07
-1.0694046e-07
-1.0817822e-07
-1.0955708e-07
3.534826e-08
3.7837954e-08
3.8884426e-08
4.300657e-08
4.4924457e-08
4.4887263e-08
4.3686979e-08
4.1647046e-08
3.9106033e-08
3.636191e-08
3.3651201e-08
3.1132686e-08
2.8914952e-08
2.7066549e-08
2.5623759e-08
2.4594407e-08
2.3967019e-08
2.3710485e-08
2.3775009e-08
2.4094917e-08
2.4591056e-08
2.5173414e-08
2.5743503e-08
2.6197543e-08
2.643008e-08
2.6337275e-08
2.5820254e-08
2.4789746e-08
2.3168402e-08
2.0893557e-08
1.7919443e-08
1.4218809e-08
9.7836751e-09
4.6259803e-09
-1.2230513e-09
-7.7139447e-09
-1.4780565e-08
-2.2342122e-08
-3.0305559e-08
-3.8568222e-08
-4.7020708e-08
-5.5549846e-08
-6.404174e-08
-7.2384824e-08
-8.0472915e-08
-8.8208211e-08
-9.5504215e-08
-1.0228848e-07
-1.085052e-07
-1.1411754e-07
-1.1910974e-07
-1.2348899e-07
-1.272878e-07
-1.3056786e-07
-1.3342311e-07
-1.3597024e-07
-1.3833415e-07
-1.4077218e-07
-1.4409039e-07
-1.4915344e-07
8.3518482e-08
7.9072487e-08
7.5276217e-08
6.8040326e-08
6.3422092e-08
6.0348442e-08
5.7536451e-08
5.4656949e-08
5.1633651e-08
4.8583172e-08
4.5699973e-08
4.3177423e-08
4.1170797e-08
3.9786821e-08
3.9085708e-08
3.9088889e-08
3.9785228e-08
4.113637e-08
4.3080987e-08
4.5538312e-08
4.8411334e-08
5.1590116e-08
5.4955165e-08
5.8380883e-08
6.1739224e-08
6.4903423e-08
6.7751554e-08
7.0169791e-08
7.2055207e-08
7.3318272e-08
7.3884683e-08
7.3696672e-08
7.2713744e-08
7.0912939e-08
6.8288594e-08
6.4851852e-08
6.0629363e-08
5.5662141e-08
5.0004079e-08
4.3720241e-08
3.6885054e-08
2.9580306e-08
2.1893362e-08
1.3915117e-08
5.7381505e-09
-2.5449617e-09
-1.084306e-08
-1.9067363e-08
-2.7131845e-08
-3.4952857e-08
-4.2447976e-08
-4.9534149e-08
-5.612539e-08
-6.2130587e-08
-6.7452667e-08
-7.1991473e-08
-7.5646286e-08
-7.8290138e-08
-7.9707208e-08
-7.9773122e-08
8.5518169e-08
8.3466719e-08
8.1731658e-08
7.5526352e-08
7.0213667e-08
6.5576746e-08
6.1058387e-08
5.6634226e-08
5.237287e-08
4.8395691e-08
4.4845771e-08
4.1842294e-08
3.9485428e-08
3.7851332e-08
3.6986838e-08
3.6908422e-08
3.7604472e-08
3.9038181e-08
4.1150696e-08
4.38644e-08
4.7085885e-08
5.0709211e-08
5.4618797e-08
5.8692039e-08
6.2802539e-08
6.6822316e-08
7.0626519e-08
7.4096293e-08
7.712166e-08
7.9603956e-08
8.1458152e-08
8.2614611e-08
8.3020229e-08
8.2638974e-08
8.1451767e-08
7.9455891e-08
7.6663936e-08
7.3102433e-08
6.8810282e-08
6.3837095e-08
5.8241538e-08
5.208976e-08
4.5453969e-08
3.8411203e-08
3.1042386e-08
2.343175e-08
1.5666473e-08
7.8372672e-09
3.9226039e-11
-7.6263453e-09
-1.5049321e-08
-2.2107627e-08
-2.8663349e-08
-3.4558035e-08
-3.9610498e-08
-4.3629599e-08
-4.6433752e-08
-4.7733727e-08
-4.673212e-08
-4.26636e-08
)
;
    }
}


// ************************************************************************* //
