/*--------------------------------*- C++ -*----------------------------------*\
| =========                 |                                                 |
| \\      /  F ield         | OpenFOAM: The Open Source CFD Toolbox           |
|  \\    /   O peration     | Version:  3.0.1                                 |
|   \\  /    A nd           | Web:      www.OpenFOAM.org                      |
|    \\/     M anipulation  |                                                 |
\*---------------------------------------------------------------------------*/
FoamFile
{
    version     2.0;
    format      ascii;
    class       surfaceScalarField;
    location    "200";
    object      phi;
}
// * * * * * * * * * * * * * * * * * * * * * * * * * * * * * * * * * * * * * //

dimensions      [0 3 -1 0 0 0 0];

internalField   nonuniform List<scalar> 
1072
(
-0.19506291
-2.6370126e-09
1.7021549e-09
-0.19506291
5.3958846e-09
1.4984463e-09
-0.19506291
8.2652251e-09
2.7264901e-11
-3.4045697e-09
5.3418036e-10
-0.18091333
-3.0248634e-09
3.4868272e-09
-0.18091335
2.1568922e-08
2.2465104e-09
-0.18091334
1.7248755e-08
4.1124692e-10
-9.1468827e-09
9.2358969e-10
-0.17063145
-3.958566e-08
2.7137157e-09
-0.17063142
-9.5686818e-11
2.1839118e-09
-0.17063146
5.9346062e-08
2.7688424e-10
2.1585942e-08
9.6530606e-10
-0.16480205
-6.8953155e-08
1.6362266e-09
-0.16480202
-2.5676154e-08
2.0237886e-09
-0.16480206
9.2459281e-08
1.9865582e-10
5.320615e-08
9.6775476e-10
-0.1567989
-1.0250149e-07
7.4215665e-10
-0.15679886
-6.146121e-08
1.6337449e-09
-0.1567989
1.2972941e-07
7.1728125e-11
9.3431559e-08
8.0041307e-10
-0.14610288
-1.0994049e-07
1.0208566e-10
-0.14610286
-7.6160218e-08
1.1722238e-09
-0.14610287
1.4071582e-07
5.9596007e-11
1.1121695e-07
6.7367464e-10
-0.13342699
-8.2556045e-08
-3.238206e-10
-0.133427
-5.7443434e-08
7.4999341e-10
-0.13342698
1.1602534e-07
1.5392939e-10
9.3988178e-08
5.6392124e-10
-0.11956866
-2.842185e-08
-4.5079765e-10
-0.1195687
-1.0245256e-08
3.8878217e-10
-0.11956865
6.2970046e-08
1.8751504e-10
4.650479e-08
4.4788409e-10
-0.10514866
4.0713829e-08
-3.0498725e-10
-0.10514873
5.4995678e-08
9.2774789e-11
-0.10514866
-7.1946189e-09
1.9752705e-10
-2.0786452e-08
3.1226955e-10
-0.09052036
1.1523837e-07
-8.5354151e-11
-0.090520436
1.2865431e-07
-1.352284e-10
-0.090520359
-8.4858309e-08
1.9054523e-10
-9.8354529e-08
1.4032112e-10
-0.075806137
1.8963298e-07
1.6796449e-10
-0.075806216
2.0472485e-07
-2.9270661e-10
-0.075806138
-1.6429044e-07
1.5952528e-10
-1.7986934e-07
-5.2330798e-11
-0.060985767
2.6222838e-07
4.2504242e-10
-0.060985847
2.8104315e-07
-3.9408811e-10
-0.06098577
-2.4350327e-07
1.4479027e-10
-2.6290919e-07
-2.5572767e-10
-0.04597018
3.3359755e-07
6.677397e-10
-0.045970261
3.5795316e-07
-4.5774485e-10
-0.045970185
-3.2266595e-07
1.2491516e-10
-3.4751225e-07
-4.6566151e-10
-0.03064009
4.0490464e-07
8.8614229e-10
-0.030640173
4.366797e-07
-4.9364639e-10
-0.030640097
-4.02523e-07
9.9179773e-11
-4.3458487e-07
-6.7283881e-10
-0.014856647
4.768835e-07
1.076921e-09
-0.014856733
5.182378e-07
-5.0950097e-10
-0.014856656
-4.8341465e-07
7.55906e-11
-5.2482122e-07
-8.6936023e-10
0.0015424617
5.4949065e-07
1.239018e-09
0.0015423727
6.0298502e-07
-5.1155058e-10
0.0015424501
-5.6493588e-07
5.2688034e-11
-6.182646e-07
-1.0496344e-09
0.01875126
6.2198683e-07
1.3734635e-09
0.018751169
6.9062135e-07
-5.0277612e-10
0.018751246
-6.4602735e-07
2.8823835e-11
-7.1432223e-07
-1.2098676e-09
0.037002718
6.9318149e-07
1.4866121e-09
0.037002624
7.8039322e-07
-4.8417561e-10
0.037002699
-7.252295e-07
2.4590873e-12
-8.1198087e-07
-1.3473251e-09
0.056573092
7.6169228e-07
1.5791889e-09
0.056572998
8.7133337e-07
-4.5658743e-10
0.05657307
-8.0093903e-07
-2.7676784e-11
-9.1005275e-07
-1.459821e-09
0.077783418
8.2612466e-07
1.651326e-09
0.077783324
9.6243793e-07
-4.2018297e-10
0.077783391
-8.7158979e-07
-6.2584425e-11
-1.0073592e-06
-1.5453926e-09
0.10099889
8.8516876e-07
1.7011287e-09
0.10099879
1.0527603e-06
-3.7481745e-10
0.10099886
-9.3574686e-07
-1.0308158e-10
-1.1028277e-06
-1.6023054e-09
0.12662698
9.3762337e-07
1.7267205e-09
0.12662689
1.1414357e-06
-3.1999161e-10
0.12662695
-9.9213165e-07
-1.4976055e-10
-1.1955135e-06
-1.6288503e-09
0.15511503
9.8238106e-07
1.7262776e-09
0.15511494
1.2276532e-06
-2.5549932e-10
0.15511499
-1.039605e-06
-2.0296891e-10
-1.2845736e-06
-1.6237146e-09
0.18694754
1.0183961e-06
1.6984729e-09
0.18694746
1.3106053e-06
-1.8162628e-10
0.1869475
-1.0771333e-06
-2.6280662e-10
-1.3692111e-06
-1.5865852e-09
0.22264363
1.0446553e-06
1.6429438e-09
0.22264355
1.3894295e-06
-9.9163415e-11
0.22264357
-1.1037564e-06
-3.2902999e-10
-1.4486115e-06
-1.5183577e-09
0.26275435
1.0601627e-06
1.5607277e-09
0.26275428
1.4631566e-06
-9.7300171e-12
0.2627543
-1.1185645e-06
-4.0089611e-10
-1.5218825e-06
-1.421918e-09
0.30786013
1.0639389e-06
1.4551033e-09
0.30786006
1.5306689e-06
8.4432715e-11
0.30786006
-1.1206951e-06
-4.7706148e-10
-1.5880079e-06
-1.301601e-09
0.35856788
1.055051e-06
1.3268291e-09
0.35856783
1.5906747e-06
1.809728e-10
0.35856781
-1.1093468e-06
-5.5559435e-10
-1.6458171e-06
-1.1602035e-09
0.41550795
1.0326426e-06
1.1823371e-09
0.4155079
1.6416976e-06
2.7709375e-10
0.41550788
-1.0838107e-06
-6.3408332e-10
-1.6939663e-06
-1.0043122e-09
0.47933051
9.9599149e-07
1.0269381e-09
0.47933047
1.6820822e-06
3.6974657e-10
0.47933043
-1.0435177e-06
-7.0967451e-10
-1.7309397e-06
-8.4005015e-10
0.55070141
9.4457344e-07
8.6628049e-10
0.55070139
1.710016e-06
4.5579667e-10
0.55070133
-9.88096e-07
-7.7925032e-10
-1.7550654e-06
-6.7368227e-10
0.63029739
8.7813336e-07
7.0592828e-10
0.63029738
1.7235672e-06
5.3181755e-10
0.6302973
-9.1743637e-07
-8.3962113e-10
-1.7645466e-06
-5.1119371e-10
0.71880046
7.9675689e-07
5.5101892e-10
0.71880047
1.7207315e-06
5.9565577e-10
0.71880039
-8.3175925e-07
-8.8772675e-10
-1.7575089e-06
-3.5793852e-10
0.81689163
7.0093858e-07
4.060004e-10
0.81689166
1.6995017e-06
6.4442595e-10
0.81689156
-7.3167937e-07
-9.2080524e-10
-1.7320614e-06
-2.1834579e-10
0.92524368
5.9164074e-07
2.7442275e-10
0.92524373
1.6579453e-06
6.760584e-10
0.92524362
-6.1826294e-07
-9.3648241e-10
-1.6863736e-06
-9.5768977e-11
1.0445133
4.7033766e-07
1.5886516e-10
1.0445134
1.5942969e-06
6.889324e-10
1.0445133
-4.9306776e-07
-9.3305488e-10
-1.6187655e-06
7.6115905e-12
1.1753326
3.3903995e-07
6.0912735e-11
1.1753327
1.5070627e-06
6.818762e-10
1.1753325
-3.5816979e-07
-9.0928763e-10
-1.5278113e-06
9.0775158e-11
1.3182996
2.0029393e-07
-1.8772512e-11
1.3182997
1.3951364e-06
6.5418516e-10
1.3182996
-2.1616138e-07
-8.6475135e-10
-1.412455e-06
1.5378646e-10
1.473969
5.7151594e-08
-8.0425866e-11
1.4739692
1.2579225e-06
6.0560879e-10
1.473969
-7.012209e-08
-7.9969398e-10
-1.2721342e-06
1.9767175e-10
1.6428419
-8.6892256e-08
-1.2495175e-10
1.6428421
1.0954664e-06
5.3633151e-10
1.6428419
7.6443011e-08
-7.1500631e-10
-1.1069117e-06
2.2426258e-10
1.8253557
-2.2799808e-07
-1.5378079e-10
1.8253559
9.0858521e-07
4.4695337e-10
1.8253557
2.1969939e-07
-6.1220745e-10
-9.1760713e-07
2.3602304e-10
2.0218741
-3.6211508e-07
-1.687334e-10
2.0218743
6.9899569e-07
3.3847207e-10
2.0218741
3.5561431e-07
-4.9340487e-10
-7.0592765e-07
2.3586737e-10
2.2326772
-4.851479e-07
-1.7184194e-10
2.2326775
4.6943247e-07
2.1225934e-10
2.2326773
4.8012093e-07
-3.6123301e-10
-4.7458831e-07
2.2698179e-10
2.4579525
-5.9315209e-07
-1.6520038e-10
2.4579527
2.2375155e-07
7.0060374e-11
2.4579526
5.8931089e-07
-2.1879571e-10
-2.2741833e-07
2.1264043e-10
2.6977859
-6.8255022e-07
-1.5082851e-10
2.6977861
-3.2988858e-08
-8.6014704e-11
2.697786
6.7964721e-07
-6.9605721e-11
3.0555189e-08
1.9604632e-10
2.9521543
-7.5035707e-07
-1.3055481e-10
2.9521545
-2.9447725e-07
-2.5349864e-10
2.9521545
7.4818639e-07
8.2479922e-11
2.9305296e-07
1.801682e-10
3.2209191
-7.9439905e-07
-1.0591764e-10
3.2209194
-5.5313608e-07
-4.2957577e-10
3.2209194
7.9279407e-07
2.3332625e-10
5.5252804e-07
1.6759098e-10
3.5038214
-8.1350812e-07
-7.8093497e-11
3.5038217
-8.0015767e-07
-6.1109341e-10
3.5038217
8.1233647e-07
3.7856824e-10
8.0019824e-07
1.6038486e-10
3.800478
-8.0766857e-07
-4.7898254e-11
3.8004782
-1.0256031e-06
-7.9456402e-10
3.8004782
8.068249e-07
5.1367658e-10
1.0261428e-06
1.599962e-10
4.1103799
-7.7809253e-07
-1.5792092e-11
4.1103801
-1.2185856e-06
-9.7617144e-10
4.1103801
7.7748953e-07
6.3401224e-10
1.2194845e-06
1.6721516e-10
4.4328926
-7.2719722e-07
1.800746e-11
4.4328927
-1.3675748e-06
-1.1517656e-09
4.4328928
7.2675804e-07
7.3489079e-10
1.3686944e-06
1.821448e-10
4.7672576
-6.5846367e-07
5.3351646e-11
4.7672577
-1.4608768e-06
-1.3168317e-09
4.7672577
6.5811749e-07
8.1167169e-10
1.4620755e-06
2.0428107e-10
5.112597
-5.7616283e-07
8.9903286e-11
5.112597
-1.4873853e-06
-1.4664437e-09
5.1125971
5.7584729e-07
8.5991002e-10
1.488519e-06
2.3261676e-10
5.467919
-4.8495753e-07
1.26842e-10
5.4679189
-1.4377483e-06
-1.595221e-09
5.467919
4.8463133e-07
8.7554836e-10
1.4386811e-06
2.6573846e-10
5.8321263
-3.8943043e-07
1.625708e-10
5.8321262
-1.3061884e-06
-1.6973508e-09
5.8321263
3.8909858e-07
8.5524497e-10
1.3068122e-06
3.0178976e-10
6.2040256
-2.9366467e-07
1.9444191e-10
6.2040254
-1.093343e-06
-1.766781e-09
6.2040255
2.9341595e-07
7.9674151e-10
1.0936071e-06
3.3814861e-10
6.5823394
-2.0112068e-07
2.1839821e-10
6.5823391
-8.1061178e-07
-1.7978045e-09
6.5823392
2.011734e-07
6.991289e-10
8.105541e-07
3.7079323e-10
6.9657186
-1.152136e-07
2.2854759e-10
6.9657183
-4.8645243e-07
-1.7855263e-09
6.9657184
1.1595463e-07
5.6305725e-10
4.8622009e-07
3.9304666e-10
7.3527576
-4.1799591e-08
2.1753556e-10
7.3527573
-1.7704588e-07
-1.7307573e-09
7.3527574
4.3678772e-08
3.9628103e-10
1.7689424e-07
3.9807992e-10
7.7420093
1.625802e-10
7.7420091
-1.4577932e-09
7.7420091
1.747552e-10
3.3487715e-10
-0.19506292
-1.4226739e-08
-0.19506292
5.9425886e-09
-0.19506292
1.3235423e-08
3.1548811e-09
-0.18091333
-1.18509e-08
-0.18091336
1.0846332e-08
-0.18091334
2.0530412e-08
1.616673e-09
-0.17063146
-4.3341287e-08
-0.17063143
-1.4550748e-08
-0.17063147
5.9950366e-08
3.232122e-08
-0.16480205
-6.8262526e-08
-0.16480202
-3.7823561e-08
-0.16480206
9.09014e-08
6.1761056e-08
-0.15679889
-1.0011452e-07
-0.15679885
-7.0389506e-08
-0.15679889
1.2763885e-07
1.00194e-07
-0.14610287
-1.0622396e-07
-0.14610285
-8.0940593e-08
-0.14610286
1.3743127e-07
1.1537861e-07
-0.13342697
-7.8712351e-08
-0.13342699
-5.8600049e-08
-0.13342697
1.1199883e-07
9.5700711e-08
-0.11956865
-2.5211274e-08
-0.1195687
-8.9600857e-09
-0.11956864
5.8738306e-08
4.6360577e-08
-0.10514866
4.3255569e-08
-0.10514872
5.754466e-08
-0.10514866
-1.1222742e-08
-2.2203e-08
-0.09052036
1.1725609e-07
-0.090520434
1.3156295e-07
-0.090520359
-8.8453731e-08
-1.0040993e-07
-0.075806139
1.9135736e-07
-0.075806217
2.0746032e-07
-0.07580614
-1.6740997e-07
-1.8233298e-07
-0.060985771
2.6389236e-07
-0.06098585
2.8339639e-07
-0.060985774
-2.4618637e-07
-2.6567614e-07
-0.045970185
3.3537533e-07
-0.045970264
3.5991771e-07
-0.045970189
-3.2501686e-07
-3.505487e-07
-0.030640096
4.0688346e-07
-0.030640178
4.3835778e-07
-0.030640102
-4.0466118e-07
-4.3787758e-07
-0.014856653
4.7907066e-07
-0.014856739
5.1976776e-07
-0.014856662
-4.8542833e-07
-5.2834843e-07
0.0015424541
5.5183616e-07
0.0015423657
6.0449359e-07
0.001542443
-5.6687554e-07
-6.219886e-07
0.018751251
6.2440979e-07
0.01875116
6.922056e-07
0.018751237
-6.4791048e-07
-7.1819255e-07
0.037002707
6.9560077e-07
0.037002614
7.8211922e-07
0.037002689
-7.2704978e-07
-8.1594092e-07
0.05657308
7.6403861e-07
0.056572986
8.7323908e-07
0.056573058
-8.0267611e-07
-9.1404562e-07
0.077783404
8.2834619e-07
0.077783311
9.6453939e-07
0.077783378
-8.7321711e-07
-1.0113301e-06
0.10099887
8.8722593e-07
0.10099878
1.0550595e-06
0.10099884
-9.3723728e-07
-1.1067258e-06
0.12662697
9.3948434e-07
0.12662688
1.1439231e-06
0.12662693
-9.9346075e-07
-1.199294e-06
0.15511501
9.840166e-07
0.15511492
1.2303126e-06
0.15511497
-1.0407527e-06
-1.288196e-06
0.18694752
1.0197774e-06
0.18694744
1.3134156e-06
0.18694748
-1.0780835e-06
-1.3726378e-06
0.22264361
1.0457538e-06
0.22264353
1.3923656e-06
0.22264355
-1.1044944e-06
-1.4518078e-06
0.26275433
1.0609498e-06
0.26275426
1.4661878e-06
0.26275427
-1.1190762e-06
-1.5248192e-06
0.30786011
1.0643928e-06
0.30786004
1.533758e-06
0.30786004
-1.1209651e-06
-1.5906623e-06
0.35856786
1.0551466e-06
0.3585678
1.5937764e-06
0.35856779
-1.1093576e-06
-1.6481685e-06
0.41550793
1.0323596e-06
0.41550788
1.6447583e-06
0.41550785
-1.0835434e-06
-1.6959971e-06
0.47933048
9.95315e-07
0.47933045
1.6850406e-06
0.47933041
-1.042952e-06
-1.7326338e-06
0.55070138
9.4349479e-07
0.55070136
1.7128038e-06
0.5507013
-9.8721217e-07
-1.7564064e-06
0.63029736
8.7665055e-07
0.63029735
1.7261073e-06
0.63029728
-9.1621695e-07
-1.765517e-06
0.71880044
7.9487525e-07
0.71880044
1.7229452e-06
0.71880036
-8.3019125e-07
-1.7580887e-06
0.81689161
6.9867138e-07
0.81689163
1.7013076e-06
0.81689153
-7.2975649e-07
-1.7322276e-06
0.92524366
5.890098e-07
0.9252437
1.6592614e-06
0.92524359
-6.1598597e-07
-1.6861004e-06
1.0445133
4.6737405e-07
1.0445134
1.5950429e-06
1.0445132
-4.9044969e-07
-1.6180248e-06
1.1753326
3.3578448e-07
1.1753327
1.5071624e-06
1.1753325
-3.5523517e-07
-1.5265736e-06
1.3182996
1.9679739e-07
1.3182997
1.3945199e-06
1.3182996
-2.1294729e-07
-1.4106903e-06
1.473969
5.3474471e-08
1.4739692
1.2565288e-06
1.473969
-6.6678549e-08
-1.2698142e-06
1.6428419
-9.0680583e-08
1.6428421
1.0932457e-06
1.6428419
8.0053149e-08
-1.1040106e-06
1.8253557
-2.318206e-07
1.8253559
9.0550152e-07
1.8253557
2.2340117e-07
-9.1410446e-07
2.0218741
-3.6588897e-07
2.0218743
6.9502907e-07
2.0218741
3.5932208e-07
-7.0180985e-07
2.2326772
-4.8878676e-07
2.2326774
4.6458177e-07
2.2326773
4.8374034e-07
-4.6985155e-07
2.4579525
-5.965687e-07
2.4579527
2.1803682e-07
2.4579526
5.9274149e-07
-2.2207093e-07
2.6977859
-6.8565968e-07
2.6977861
-3.9523909e-08
2.697786
6.8278575e-07
3.6489967e-08
2.9521543
-7.5308036e-07
2.9521545
-3.0176283e-07
2.9521545
7.509306e-07
2.995341e-07
3.2209191
-7.966667e-07
3.2209194
-5.6107409e-07
3.2209194
7.9504726e-07
5.5949374e-07
3.5038214
-8.1526437e-07
3.5038217
-8.086195e-07
3.5038217
8.1401227e-07
8.0756328e-07
3.800478
-8.0887602e-07
3.8004782
-1.0344276e-06
3.8004782
8.0785241e-07
1.0337959e-06
4.1103799
-7.7873577e-07
4.1103801
-1.2275778e-06
4.1103802
7.778188e-07
1.2272865e-06
4.4328926
-7.2728714e-07
4.4328927
-1.3765045e-06
4.4328928
7.2636548e-07
1.3764756e-06
4.7672576
-6.5804074e-07
4.7672577
-1.4694789e-06
4.7672578
6.5701125e-07
1.4696349e-06
5.112597
-5.7529914e-07
5.112597
-1.495361e-06
5.1125971
5.7407187e-07
1.495625e-06
5.467919
-4.8375692e-07
5.467919
-1.4447709e-06
5.4679191
4.8227036e-07
1.4450752e-06
5.8321263
-3.8802622e-07
5.8321262
-1.3119162e-06
5.8321263
3.8627402e-07
1.3122196e-06
6.2040257
-2.9221453e-07
6.2040255
-1.0974483e-06
6.2040256
2.902801e-07
1.0977593e-06
6.5823394
-1.9980056e-07
6.5823391
-8.128406e-07
6.5823392
1.9788802e-07
8.1323413e-07
6.9657186
-1.1421082e-07
6.9657183
-4.8673503e-07
6.9657184
1.1263984e-07
4.8734179e-07
7.3527577
-4.1279696e-08
7.3527573
-1.7557665e-07
7.3527574
4.0461204e-08
1.7645246e-07
7.7420093
7.7420091
7.7420091
)
;

boundaryField
{
    movingWall
    {
        type            calculated;
        value           uniform 0;
    }
    CPLReceiveMD
    {
        type            calculated;
        value           uniform 0;
    }
    streamwiseIn
    {
        type            cyclic;
        value           nonuniform List<scalar> 
120
(
0.19506291
0.18091332
0.17063149
0.16480209
0.15679894
0.14610289
0.13342696
0.11956861
0.10514859
0.090520285
0.07580606
0.060985691
0.045970104
0.030640014
0.01485657
-0.0015425389
-0.018751337
-0.037002793
-0.056573164
-0.077783485
-0.10099895
-0.12662704
-0.15511507
-0.18694758
-0.22264365
-0.26275437
-0.30786013
-0.35856787
-0.41550793
-0.47933047
-0.55070136
-0.63029732
-0.71880038
-0.81689153
-0.92524357
-1.0445132
-1.1753325
-1.3182995
-1.4739689
-1.6428418
-1.8253556
-2.0218739
-2.2326771
-2.4579524
-2.6977858
-2.9521542
-3.2209191
-3.5038214
-3.800478
-4.11038
-4.4328926
-4.7672577
-5.112597
-5.4679191
-5.8321264
-6.2040257
-6.5823395
-6.9657187
-7.3527577
-7.7420093
0.19506292
0.18091332
0.1706315
0.16480209
0.15679893
0.14610288
0.13342695
0.1195686
0.10514859
0.090520283
0.075806061
0.060985694
0.045970108
0.030640018
0.014856575
-0.0015425329
-0.01875133
-0.037002784
-0.056573154
-0.077783473
-0.10099894
-0.12662702
-0.15511506
-0.18694756
-0.22264364
-0.26275435
-0.30786011
-0.35856785
-0.41550791
-0.47933045
-0.55070133
-0.63029729
-0.71880035
-0.81689151
-0.92524355
-1.0445132
-1.1753324
-1.3182995
-1.4739689
-1.6428418
-1.8253555
-2.0218739
-2.2326771
-2.4579524
-2.6977858
-2.9521542
-3.2209191
-3.5038214
-3.800478
-4.11038
-4.4328926
-4.7672577
-5.1125971
-5.4679191
-5.8321264
-6.2040258
-6.5823395
-6.9657187
-7.3527577
-7.7420093
)
;
    }
    streamwiseOut
    {
        type            cyclic;
        value           nonuniform List<scalar> 
120
(
-0.19506291
-0.18091332
-0.17063149
-0.16480209
-0.15679894
-0.14610289
-0.13342696
-0.11956861
-0.10514859
-0.090520285
-0.07580606
-0.060985691
-0.045970104
-0.030640014
-0.01485657
0.0015425389
0.018751337
0.037002793
0.056573164
0.077783485
0.10099895
0.12662704
0.15511507
0.18694758
0.22264365
0.26275437
0.30786013
0.35856787
0.41550793
0.47933047
0.55070136
0.63029732
0.71880038
0.81689153
0.92524357
1.0445132
1.1753325
1.3182995
1.4739689
1.6428418
1.8253556
2.0218739
2.2326771
2.4579524
2.6977858
2.9521542
3.2209191
3.5038214
3.800478
4.11038
4.4328926
4.7672577
5.112597
5.4679191
5.8321264
6.2040257
6.5823395
6.9657187
7.3527577
7.7420093
-0.19506292
-0.18091332
-0.1706315
-0.16480209
-0.15679893
-0.14610288
-0.13342695
-0.1195686
-0.10514859
-0.090520283
-0.075806061
-0.060985694
-0.045970108
-0.030640018
-0.014856575
0.0015425329
0.01875133
0.037002784
0.056573154
0.077783473
0.10099894
0.12662702
0.15511506
0.18694756
0.22264364
0.26275435
0.30786011
0.35856785
0.41550791
0.47933045
0.55070133
0.63029729
0.71880035
0.81689151
0.92524355
1.0445132
1.1753324
1.3182995
1.4739689
1.6428418
1.8253555
2.0218739
2.2326771
2.4579524
2.6977858
2.9521542
3.2209191
3.5038214
3.800478
4.11038
4.4328926
4.7672577
5.1125971
5.4679191
5.8321264
6.2040258
6.5823395
6.9657187
7.3527577
7.7420093
)
;
    }
    front
    {
        type            cyclic;
        value           nonuniform 0();
    }
    back
    {
        type            cyclic;
        value           nonuniform 0();
    }
    procBoundary1to0
    {
        type            processor;
        value           nonuniform List<scalar> 
240
(
2.5813025e-09
8.8727418e-10
2.4745435e-10
-6.1929642e-10
4.0792234e-09
1.7684492e-09
7.57332e-10
-1.5600504e-10
3.1006512e-09
1.9145828e-09
6.7485365e-10
6.8172445e-11
2.1520778e-09
1.957215e-09
5.8978423e-10
2.5165409e-10
1.2514598e-09
1.813405e-09
4.2016016e-10
2.767514e-10
4.9938265e-10
1.4513755e-09
3.4773749e-10
3.1975357e-10
-2.0739255e-11
1.0639457e-09
3.1308183e-10
3.4241091e-10
-1.9356351e-10
6.976952e-10
3.038072e-10
3.2411589e-10
-1.2747488e-10
3.7462788e-10
2.7603475e-10
2.1322142e-10
2.6329281e-11
1.1177673e-10
2.3647293e-10
2.5491084e-10
2.2701012e-10
-8.1160153e-11
1.9979024e-10
9.8236487e-11
4.428476e-10
-2.1366239e-10
1.6203483e-10
-1.078607e-10
6.5362498e-10
-3.0930182e-10
1.2678961e-10
-3.2894848e-10
8.4759652e-10
-3.7368298e-10
9.4888912e-11
-5.4771695e-10
1.0200305e-09
-4.1352601e-10
6.6047444e-11
-7.5411398e-10
1.1703231e-09
-4.3465468e-10
3.8471878e-11
-9.4223062e-10
1.2997514e-09
-4.4024657e-10
1.0403036e-11
-1.108896e-09
1.4100286e-09
-4.3184727e-10
-1.9554303e-11
-1.2521891e-09
1.5023333e-09
-4.1145645e-10
-5.2461266e-11
-1.3706034e-09
1.5767556e-09
-3.801935e-10
-8.9111926e-11
-1.46201e-09
1.6307741e-09
-3.3797352e-10
-1.3024998e-10
-1.5249947e-09
1.66219e-09
-2.8656678e-10
-1.7650116e-10
-1.5590466e-09
1.6681842e-09
-2.2573351e-10
-2.2871892e-10
-1.5623188e-09
1.6473802e-09
-1.5565499e-10
-2.8716484e-10
-1.5339629e-09
1.5992733e-09
-7.6991034e-11
-3.5123966e-10
-1.4744364e-09
1.5243613e-09
8.6985765e-12
-4.2048441e-10
-1.3864111e-09
1.4259164e-09
9.9837435e-11
-4.9382107e-10
-1.272924e-09
1.3042941e-09
1.9360993e-10
-5.6953656e-10
-1.1381053e-09
1.1654626e-09
2.8727629e-10
-6.4538305e-10
-9.8780124e-10
1.0146939e-09
3.7781511e-10
-7.1861611e-10
-8.2801868e-10
8.5766914e-10
4.6206994e-10
-7.8617712e-10
-6.6510531e-10
7.0003891e-10
5.3604447e-10
-8.4489297e-10
-5.0516801e-10
5.4706305e-10
5.987991e-10
-8.9168657e-10
-3.5370475e-10
4.0332996e-10
6.4677759e-10
-9.2374617e-10
-2.1529579e-10
2.7253315e-10
6.7785681e-10
-9.3787111e-10
-9.3440956e-11
1.573872e-10
6.9035896e-10
-9.3406211e-10
9.5466852e-12
5.9596814e-11
6.8306079e-10
-9.1008534e-10
9.2532778e-11
-2.0101749e-11
6.5521449e-10
-8.6545716e-10
1.5549054e-10
-8.1831174e-11
6.0653536e-10
-8.0036732e-10
1.9937709e-10
-1.2644094e-10
5.3718247e-10
-7.1567532e-10
2.2597552e-10
-1.5532645e-10
4.4773847e-10
-6.1287797e-10
2.3771954e-10
-1.7028875e-10
3.3912137e-10
-4.9404106e-10
2.3750787e-10
-1.7330688e-10
2.1278243e-10
-3.6178482e-10
2.2844849e-10
-1.6650257e-10
7.0466333e-11
-2.1926223e-10
2.1390438e-10
-1.5194405e-10
-8.5717347e-11
-6.9985237e-11
1.9709448e-10
-1.3146953e-10
-2.533008e-10
8.2187716e-11
1.8099683e-10
-1.0662803e-10
-4.294673e-10
2.3311551e-10
1.6820572e-10
-7.8610613e-11
-6.1105997e-10
3.7843416e-10
1.6079957e-10
-4.8422074e-11
-7.9459179e-10
5.1361311e-10
1.6023755e-10
-1.6135211e-11
-9.7624974e-10
6.3401127e-10
1.6747479e-10
1.7827302e-11
-1.1518838e-09
7.3494277e-10
1.822499e-10
5.3312991e-11
-1.3169798e-09
8.1176663e-10
2.0425518e-10
8.9983183e-11
-1.4666124e-09
8.6003775e-10
2.3248353e-10
1.2701818e-10
-1.5954026e-09
8.7569944e-10
2.6552025e-10
1.6282266e-10
-1.6975383e-09
8.5541122e-10
3.0150637e-10
1.9475229e-10
-1.7669688e-09
7.9691596e-10
3.3781676e-10
2.1875463e-10
-1.7979871e-09
6.9930656e-10
3.704255e-10
2.2892995e-10
-1.7857011e-09
5.6323709e-10
3.9266238e-10
2.1796496e-10
-1.730925e-09
3.9647691e-10
3.9766444e-10
1.6308097e-10
-1.4579426e-09
1.749665e-10
3.3441949e-10
)
;
    }
    procBoundary1to0throughback
    {
        type            processorCyclic;
        value           nonuniform List<scalar> 
240
(
7.5646061e-09
6.759694e-09
6.1147449e-09
5.1087996e-09
3.8596529e-09
2.8849927e-09
2.2304066e-09
1.6728e-09
1.1007438e-09
5.9490475e-10
1.5297951e-10
-2.3106967e-10
-5.6144962e-10
-8.4138157e-10
-1.0753936e-09
-1.2687605e-09
-1.4264494e-09
-1.5529289e-09
-1.6513607e-09
-1.7238467e-09
-1.7700902e-09
-1.7895278e-09
-1.7809319e-09
-1.7442585e-09
-1.6801662e-09
-1.5899138e-09
-1.4777438e-09
-1.3441042e-09
-1.1952223e-09
-1.0363863e-09
-8.7315526e-10
-7.1096588e-10
-5.5481235e-10
-4.089999e-10
-2.76948e-10
-1.6112442e-10
-6.3025341e-11
1.6778369e-11
7.8532228e-11
1.2316932e-10
1.5213478e-10
1.6725275e-10
1.7050708e-10
1.6400659e-10
1.4980275e-10
1.2971228e-10
1.0526254e-10
7.7625337e-11
4.7772928e-11
1.5817748e-11
-1.7874721e-11
-5.3137168e-11
-8.9629706e-11
-1.2652869e-10
-1.6223319e-10
-1.9409195e-10
-2.1804401e-10
-2.2817814e-10
-2.1714367e-10
-1.621598e-10
-2.1787317e-11
2.1905505e-11
-2.3929411e-10
-4.8845106e-10
-4.5596651e-10
-3.2761102e-10
-1.5100311e-10
4.3214078e-11
2.2717028e-10
3.7789291e-10
4.841534e-10
5.5047964e-10
5.8642638e-10
6.0052756e-10
5.9922406e-10
5.8789085e-10
5.6829391e-10
5.4084624e-10
5.0580458e-10
4.6272079e-10
4.1042786e-10
3.4994582e-10
2.8063657e-10
2.025542e-10
1.1639174e-10
2.3719093e-11
-7.3668369e-11
-1.7289239e-10
-2.7117688e-10
-3.6551404e-10
-4.528264e-10
-5.2915165e-10
-5.935852e-10
-6.4281175e-10
-6.7476914e-10
-6.8787225e-10
-6.8098091e-10
-6.5341532e-10
-6.0494276e-10
-5.3575935e-10
-4.4647164e-10
-3.3801253e-10
-2.1183575e-10
-6.9687594e-11
8.6325922e-11
2.5374217e-10
4.2974992e-10
6.1119716e-10
7.9460073e-10
9.7614964e-10
1.1516949e-09
1.3167218e-09
1.4663042e-09
1.5950609e-09
1.6971782e-09
1.7666038e-09
1.7976306e-09
1.7853685e-09
1.7306191e-09
1.4576712e-09
1.4991909e-09
1.9236478e-09
1.9045393e-09
1.5678831e-09
1.2810697e-09
9.0435131e-10
5.4373092e-10
3.0988156e-10
1.4323047e-10
4.5255747e-11
-1.4186772e-11
-4.5199211e-11
-5.9946423e-11
-6.5364159e-11
-6.5006763e-11
-5.9363611e-11
-4.7950551e-11
-3.0048232e-11
-5.0634915e-12
2.7439897e-11
6.77327e-11
1.1587718e-10
1.721322e-10
2.3610242e-10
3.0657455e-10
3.8253602e-10
4.6246144e-10
5.4430318e-10
6.2559114e-10
7.0345979e-10
7.7481637e-10
8.3652174e-10
8.8558146e-10
9.1930578e-10
9.3463098e-10
9.3149172e-10
9.079953e-10
8.6366819e-10
7.987675e-10
7.1420583e-10
6.1151719e-10
4.9279189e-10
3.6065911e-10
2.182768e-10
6.9154785e-11
-8.2854124e-11
-2.3361564e-10
-3.7877303e-10
-5.1380206e-10
-6.3406634e-10
-7.3488328e-10
-8.1161324e-10
-8.5981136e-10
-8.754198e-10
-8.5509593e-10
-7.9658017e-10
-6.9896213e-10
-5.6288968e-10
-3.961186e-10
-1.7458188e-10
4.3864228e-10
9.3046532e-10
8.6448165e-10
6.2714652e-10
4.5799054e-10
2.7909293e-10
1.4818964e-10
8.1762144e-11
4.997775e-11
6.6514117e-11
2.3107534e-10
4.1672867e-10
6.1328124e-10
8.0973743e-10
9.9696003e-10
1.1685727e-09
1.3201191e-09
1.4484985e-09
1.5514029e-09
1.6262766e-09
1.6716752e-09
1.6874581e-09
1.672299e-09
1.6260181e-09
1.5496292e-09
1.4461701e-09
1.3192391e-09
1.1731067e-09
1.0136201e-09
8.4666597e-10
6.7837598e-10
5.1459008e-10
3.6051798e-10
2.2045517e-10
9.7639265e-11
-5.8438021e-12
-8.9045532e-11
-1.520816e-10
-1.9601044e-10
-2.2268028e-10
-2.3456017e-10
-2.3456104e-10
-2.2578811e-10
-2.1158683e-10
-1.9515757e-10
-1.7945701e-10
-1.6705864e-10
-1.600236e-10
-1.5979694e-10
-1.6732953e-10
-1.8235159e-10
-2.0455569e-10
-2.3293791e-10
-2.660884e-10
-3.0215419e-10
-3.3851664e-10
-3.7115722e-10
-3.9341424e-10
-3.9845734e-10
-3.3526527e-10
)
;
    }
}


// ************************************************************************* //
