/*--------------------------------*- C++ -*----------------------------------*\
| =========                 |                                                 |
| \\      /  F ield         | OpenFOAM: The Open Source CFD Toolbox           |
|  \\    /   O peration     | Version:  3.0.1                                 |
|   \\  /    A nd           | Web:      www.OpenFOAM.org                      |
|    \\/     M anipulation  |                                                 |
\*---------------------------------------------------------------------------*/
FoamFile
{
    version     2.0;
    format      ascii;
    class       volVectorField;
    location    "200";
    object      U;
}
// * * * * * * * * * * * * * * * * * * * * * * * * * * * * * * * * * * * * * //

dimensions      [0 1 -1 0 0 0 0];

internalField   nonuniform List<vector> 
480
(
(-0.012288193 8.2491149e-11 -1.6595164e-11)
(-0.012288193 1.3367072e-10 1.2358696e-11)
(-0.012288193 -4.6644866e-11 -3.3334496e-12)
(-0.012288194 -1.2554891e-10 2.6361147e-11)
(-0.011396825 5.4792997e-11 -2.0805919e-11)
(-0.011396827 3.3304488e-10 3.8883415e-12)
(-0.011396827 1.5334674e-10 -5.1253864e-12)
(-0.011396826 -2.0414326e-10 1.8377786e-11)
(-0.010749109 -2.3867948e-10 -1.8615209e-11)
(-0.010749106 2.7565216e-10 -4.796208e-12)
(-0.010749106 5.6181465e-10 -6.1037966e-12)
(-0.010749111 -1.3403276e-11 1.1927201e-11)
(-0.010381881 -8.5560393e-10 -1.7463537e-11)
(-0.010381877 -1.7417071e-10 -8.4414375e-12)
(-0.010381877 1.2039918e-09 -5.6431813e-12)
(-0.010381882 5.6193781e-10 7.2221828e-12)
(-0.009877714 -1.4188786e-09 -1.3436405e-11)
(-0.0098777091 -7.2962835e-10 -1.1267912e-11)
(-0.0098777088 1.8258293e-09 -4.51383e-12)
(-0.0098777143 1.2115817e-09 1.9662314e-12)
(-0.0092039057 -1.8273504e-09 -9.2901836e-12)
(-0.0092039035 -1.2236598e-09 -1.3174969e-11)
(-0.0092039033 2.2888148e-09 -3.2186631e-12)
(-0.0092039054 1.7624778e-09 -2.474206e-12)
(-0.0084053724 -1.6574518e-09 -6.2718066e-12)
(-0.0084053744 -1.1965874e-09 -1.3892699e-11)
(-0.0084053743 2.1668439e-09 -2.1124293e-12)
(-0.0084053718 1.7671446e-09 -5.5178988e-12)
(-0.0075323506 -9.6181899e-10 -3.9375796e-12)
(-0.0075323562 -6.3142424e-10 -1.3595959e-11)
(-0.0075323561 1.502668e-09 -1.2494209e-12)
(-0.00753235 1.210943e-09 -7.2199542e-12)
(-0.0066239467 6.1341813e-11 -2.2857659e-12)
(-0.0066239547 3.0628171e-10 -1.2556032e-11)
(-0.0066239546 4.8186345e-10 -7.2063015e-13)
(-0.0066239464 2.5501697e-10 -7.8544051e-12)
(-0.0057024209 1.2306747e-09 -1.1992455e-12)
(-0.0057024299 1.4407731e-09 -1.1025634e-11)
(-0.0057024299 -7.2012059e-10 -4.6669342e-13)
(-0.0057024208 -9.2703443e-10 -7.5620753e-12)
(-0.0047754827 2.4245771e-09 -5.154679e-13)
(-0.0047754921 2.6440016e-09 -9.2656829e-12)
(-0.0047754921 -1.9798907e-09 -3.9809017e-13)
(-0.0047754829 -2.2052012e-09 -6.8009551e-12)
(-0.0038418579 3.5912465e-09 -8.593956e-14)
(-0.0038418673 3.854931e-09 -7.4970748e-12)
(-0.0038418674 -3.2405573e-09 -4.3568042e-13)
(-0.0038418582 -3.5137477e-09 -5.890803e-12)
(-0.0028959352 4.7291636e-09 2.0537705e-13)
(-0.0028959446 5.0662221e-09 -5.8857616e-12)
(-0.0028959447 -4.4943291e-09 -4.9542412e-13)
(-0.0028959356 -4.840444e-09 -5.0056851e-12)
(-0.0019302 5.8575133e-09 4.3548386e-13)
(-0.0019302095 6.2961575e-09 -4.5216275e-12)
(-0.0019302097 -5.7536187e-09 -5.2391081e-13)
(-0.0019302006 -6.1985042e-09 -4.238537e-12)
(-0.00093590531 6.9937782e-09 6.4513303e-13)
(-0.00093591493 7.5654941e-09 -3.4307098e-12)
(-0.00093591528 -7.0293531e-09 -4.9338129e-13)
(-0.00093590606 -7.6035629e-09 -3.6215819e-12)
(9.7173863e-05 8.1436192e-09 8.4986718e-13)
(9.7164111e-05 8.8857173e-09 -2.6047989e-12)
(9.7163627e-05 -8.3211523e-09 -4.0193244e-13)
(9.717292e-05 -9.0620584e-09 -3.1537756e-12)
(0.0011812603 9.2999122e-09 1.0427427e-12)
(0.0011812505 1.0256596e-08 -2.0077742e-12)
(0.0011812498 -9.6165136e-09 -2.6130628e-13)
(0.0011812591 -1.0568939e-08 -2.8080718e-12)
(0.0023310299 1.04462e-08 1.2147722e-12)
(0.0023310203 1.1668717e-08 -1.5943614e-12)
(0.0023310195 -1.0894368e-08 -9.2011095e-14)
(0.0023310285 -1.2110423e-08 -2.5497252e-12)
(0.0035638861 1.1561142e-08 1.3514719e-12)
(0.0035638768 1.3107511e-08 -1.3162065e-12)
(0.0035638757 -1.2129572e-08 8.4208404e-14)
(0.0035638845 -1.3668153e-08 -2.3454991e-12)
(0.0049000526 1.2622139e-08 1.4392029e-12)
(0.0049000438 1.4556744e-08 -1.1290348e-12)
(0.0049000425 -1.3296497e-08 2.4660397e-13)
(0.0049000507 -1.5222794e-08 -2.1669494e-12)
(0.0063625352 1.360749e-08 1.4732362e-12)
(0.0063625271 1.6000694e-08 -1.0001432e-12)
(0.0063625255 -1.4371164e-08 3.8103984e-13)
(0.006362533 -1.6756273e-08 -1.9941482e-12)
(0.0079770036 1.4497252e-08 1.4515116e-12)
(0.0079769964 1.7424991e-08 -9.0355972e-13)
(0.0079769945 -1.5332085e-08 4.7947833e-13)
(0.0079770012 -1.8252635e-08 -1.8166252e-12)
(0.0097716374 1.5273208e-08 1.3811178e-12)
(0.0097716313 1.8816489e-08 -8.2183354e-13)
(0.009771629 -1.6160216e-08 5.3892942e-13)
(0.0097716348 -1.9697897e-08 -1.630009e-12)
(0.01177696 1.5918391e-08 1.2717622e-12)
(0.011776955 2.0162554e-08 -7.4506345e-13)
(0.011776952 -1.683847e-08 5.6202851e-13)
(0.011776957 -2.1079308e-08 -1.4369333e-12)
(0.014025671 1.641656e-08 1.1359394e-12)
(0.014025668 2.1450152e-08 -6.6897268e-13)
(0.014025665 -1.735114e-08 5.538836e-13)
(0.014025668 -2.2384343e-08 -1.2426493e-12)
(0.016552488 1.6751809e-08 9.8528788e-13)
(0.016552486 2.2664934e-08 -5.9205867e-13)
(0.016552482 -1.7683428e-08 5.2153546e-13)
(0.016552485 -2.3599675e-08 -1.0532316e-12)
(0.019393973 1.6908427e-08 8.3163323e-13)
(0.019393973 2.3790478e-08 -5.1556039e-13)
(0.019393968 -1.7821236e-08 4.7259461e-13)
(0.01939397 -2.4710309e-08 -8.7535726e-13)
(0.02258836 1.6871132e-08 6.8390379e-13)
(0.022588362 2.4807746e-08 -4.4101813e-13)
(0.022588357 -1.7751247e-08 4.1418218e-13)
(0.022588357 -2.5698975e-08 -7.1304464e-13)
(0.026175359 1.6625558e-08 5.4871677e-13)
(0.026175363 2.5694791e-08 -3.7056974e-13)
(0.026175357 -1.7461298e-08 3.5229677e-13)
(0.026175356 -2.6545736e-08 -5.6990633e-13)
(0.030195926 1.615896e-08 4.3032975e-13)
(0.030195933 2.6426722e-08 -3.0607885e-13)
(0.030195927 -1.6941019e-08 2.9164596e-13)
(0.030195924 -2.7227847e-08 -4.4785121e-13)
(0.03469201 1.5461191e-08 3.3075468e-13)
(0.034692019 2.6975924e-08 -2.4875241e-13)
(0.034692012 -1.6182678e-08 2.3555518e-13)
(0.034692008 -2.7719893e-08 -3.4699557e-13)
(0.039706241 1.4525799e-08 2.5014381e-13)
(0.039706253 2.7312525e-08 -1.9910519e-13)
(0.039706245 -1.5182177e-08 1.8605433e-13)
(0.03970624 -2.7994174e-08 -2.6618183e-13)
(0.045281584 1.3351172e-08 1.872715e-13)
(0.045281599 2.7405075e-08 -1.5713077e-13)
(0.045281591 -1.3940121e-08 1.4407943e-13)
(0.045281584 -2.8021321e-08 -2.0334207e-13)
(0.051460938 1.194167e-08 1.4000875e-13)
(0.051460957 2.722147e-08 -1.2253629e-13)
(0.051460948 -1.2462884e-08 1.097151e-13)
(0.05146094 -2.7771165e-08 -1.5586815e-13)
(0.058286688 1.0308657e-08 1.0576386e-13)
(0.058286711 2.6730118e-08 -9.4620339e-14)
(0.058286701 -1.0763599e-08 8.2417864e-14)
(0.058286691 -2.7213833e-08 -1.2094627e-13)
(0.065800203 8.4713386e-09 8.1821269e-14)
(0.065800229 2.5901293e-08 -7.2490056e-14)
(0.065800219 -8.8629478e-09 6.1238378e-14)
(0.065800208 -2.6321075e-08 -9.5819162e-14)
(0.074041298 6.4573252e-09 6.5600082e-14)
(0.074041328 2.4708702e-08 -5.5185888e-14)
(0.074041317 -6.7897154e-09 4.5305807e-14)
(0.074041306 -2.5067805e-08 -7.7970834e-14)
(0.083047655 4.3028431e-09 5.4824587e-14)
(0.083047689 2.3131243e-08 -4.1784276e-14)
(0.083047677 -4.5810015e-09 3.3585046e-14)
(0.083047666 -2.3433853e-08 -6.5251745e-14)
(0.092854212 2.0525075e-09 4.7608551e-14)
(0.09285425 2.1154911e-08 -3.1450236e-14)
(0.092854238 -2.2819947e-09 2.5083533e-14)
(0.092854226 -2.140587e-08 -5.5930204e-14)
(0.10349253 -2.4140693e-10 4.249039e-14)
(0.10349258 1.8774828e-08 -2.3471982e-14)
(0.10349256 5.4732827e-11 1.8939929e-14)
(0.10349255 -1.8979371e-08 -4.8691536e-14)
(0.11499018 -2.5202414e-09 3.8415788e-14)
(0.11499023 1.5997329e-08 -1.7269407e-14)
(0.11499021 2.3704818e-09 1.4453153e-14)
(0.1149902 -1.6160844e-08 -4.2605228e-14)
(0.12737006 -4.7207765e-09 3.4689424e-14)
(0.12737011 1.2842035e-08 -1.2386106e-14)
(0.1273701 4.6022268e-09 1.108079e-14)
(0.12737009 -1.2969851e-08 -3.7072846e-14)
(0.14064982 -6.7776329e-09 3.0907029e-14)
(0.14064988 9.3438338e-09 -8.4833918e-15)
(0.14064986 6.6849647e-09 8.4307501e-15)
(0.14064986 -9.4410478e-09 -3.1757746e-14)
(0.15484128 -8.6261838e-09 2.6896565e-14)
(0.15484133 5.5546682e-09 -5.3179861e-15)
(0.15484132 8.5545783e-09 6.2344389e-15)
(0.15484131 -5.6260118e-09 -2.6520054e-14)
(0.16994983 -1.0205849e-08 2.2644851e-14)
(0.16994989 1.5450241e-09 -2.7256345e-15)
(0.16994987 1.0151088e-08 4.3262123e-15)
(0.16994987 -1.594782e-09 -2.1350376e-14)
(0.18597404 -1.1463647e-08 1.8241032e-14)
(0.18597409 -2.5949903e-09 -5.937922e-16)
(0.18597408 1.1422156e-08 2.6198218e-15)
(0.18597408 2.5630464e-09 -1.6323766e-14)
(0.20290516 -1.2357797e-08 1.3835459e-14)
(0.20290522 -6.7550962e-09 1.1511195e-15)
(0.2029052 1.232663e-08 1.0710429e-15)
(0.20290521 6.7376805e-09 -1.1555341e-14)
(0.22072689 -1.2861073e-08 9.5883383e-15)
(0.22072695 -1.080498e-08 2.5538454e-15)
(0.22072693 1.2837854e-08 -3.2540488e-16)
(0.22072694 1.0799219e-08 -7.1635751e-15)
(0.23941508 -1.2963607e-08 5.6480018e-15)
(0.23941514 -1.4595296e-08 3.6498081e-15)
(0.23941512 1.2946437e-08 -1.5604025e-15)
(0.23941513 1.4598662e-08 -3.2446872e-15)
(0.25893768 -1.2674746e-08 2.1501299e-15)
(0.25893773 -1.7959805e-08 4.4729075e-15)
(0.25893772 1.2662088e-08 -2.6150461e-15)
(0.25893773 1.796999e-08 1.3056369e-16)
(0.27925471 -1.2023571e-08 -8.6437029e-16)
(0.27925476 -2.0719049e-08 5.0534177e-15)
(0.27925474 1.2014129e-08 -3.4734356e-15)
(0.27925476 2.0733849e-08 2.9349238e-15)
(0.30031839 -1.1057664e-08 -3.3570266e-15)
(0.30031843 -2.268625e-08 5.4251892e-15)
(0.30031841 1.1050305e-08 -4.1378015e-15)
(0.30031843 2.2703479e-08 5.1579565e-15)
(0.32207341 -9.8398593e-09 -5.3284556e-15)
(0.32207344 -2.367663e-08 5.6115139e-15)
(0.32207342 9.8336005e-09 -4.6059339e-15)
(0.32207345 2.3694096e-08 6.8437291e-15)
(0.3444573 -8.4429419e-09 -6.8233511e-15)
(0.34445733 -2.3522516e-08 5.6515452e-15)
(0.3444573 8.4370509e-09 -4.8952618e-15)
(0.34445733 2.3538099e-08 8.0530031e-15)
(0.36740092 -6.9425345e-09 -7.8983249e-15)
(0.36740094 -2.209693e-08 5.5625925e-15)
(0.36740092 6.9367827e-09 -5.0316822e-15)
(0.36740095 2.2108771e-08 8.8665523e-15)
(0.39082912 -5.4083456e-09 -8.6489181e-15)
(0.39082913 -1.9344485e-08 5.3714844e-15)
(0.3908291 5.4034213e-09 -5.037243e-15)
(0.39082914 1.935128e-08 9.36836e-15)
(0.41466139 -3.8954918e-09 -9.2121353e-15)
(0.4146614 -1.5317683e-08 5.0770712e-15)
(0.41466137 3.8937595e-09 -4.9588226e-15)
(0.41466141 1.5319324e-08 9.6810162e-15)
(0.43881278 -2.4518297e-09 -9.8302082e-15)
(0.43881277 -1.0280383e-08 4.6673029e-15)
(0.43881274 2.4585893e-09 -4.9039931e-15)
(0.43881278 1.0279335e-08 1.0004698e-14)
(0.46319471 -1.1721279e-09 -1.129212e-14)
(0.4631947 -5.02182e-09 4.3871611e-15)
(0.46319468 1.1972075e-09 -5.1886875e-15)
(0.46319471 5.0224676e-09 1.1030224e-14)
(0.48771603 -3.2214e-10 -1.5096334e-14)
(0.48771602 -1.3341262e-09 4.4448025e-15)
(0.48771601 3.3532272e-10 -6.4556434e-15)
(0.48771602 1.3331809e-09 1.3798534e-14)
(-0.012288194 -3.7172867e-11 3.8548784e-10)
(-0.012288194 1.2894617e-10 3.929452e-11)
(-0.012288194 1.5654614e-11 4.8514797e-11)
(-0.012288194 -6.7845491e-11 2.5265278e-11)
(-0.011396825 -1.9201085e-10 4.8023932e-10)
(-0.011396827 1.7466321e-10 7.3571427e-11)
(-0.011396827 2.4706677e-10 8.0054409e-11)
(-0.011396826 -1.4830529e-12 5.9565621e-11)
(-0.01074911 -3.771571e-10 3.8473199e-10)
(-0.010749107 -1.3759049e-11 7.6566886e-11)
(-0.010749106 5.779167e-10 7.6658378e-11)
(-0.010749112 2.307816e-10 6.3552585e-11)
(-0.010381881 -8.5339997e-10 2.8879983e-10)
(-0.010381877 -3.8572711e-10 6.8908827e-11)
(-0.010381877 1.1589662e-09 6.2729666e-11)
(-0.010381881 7.0837497e-10 5.8582139e-11)
(-0.0098777138 -1.3851955e-09 1.9807051e-10)
(-0.0098777088 -8.898437e-10 5.6570424e-11)
(-0.0098777086 1.7879116e-09 4.8924705e-11)
(-0.0098777142 1.3209344e-09 4.8451414e-11)
(-0.0092039051 -1.7756829e-09 1.2963232e-10)
(-0.0092039028 -1.3270008e-09 4.4380203e-11)
(-0.0092039027 2.2445298e-09 3.5747136e-11)
(-0.0092039047 1.8447538e-09 3.8245327e-11)
(-0.0084053717 -1.5953865e-09 8.288559e-11)
(-0.0084053738 -1.2363977e-09 3.4515375e-11)
(-0.0084053737 2.1076357e-09 2.5110442e-11)
(-0.008405371 1.8108709e-09 2.9941135e-11)
(-0.00753235 -9.0552394e-10 5.2899368e-11)
(-0.0075323557 -6.2443243e-10 2.7003964e-11)
(-0.0075323556 1.4373107e-09 1.7392036e-11)
(-0.0075323494 1.2217609e-09 2.3763104e-11)
(-0.0066239464 1.058905e-10 3.4103459e-11)
(-0.0066239544 3.4030988e-10 2.121299e-11)
(-0.0066239544 4.1700359e-10 1.2064558e-11)
(-0.0066239461 2.4214935e-10 1.9059718e-11)
(-0.0057024208 1.2651684e-09 2.2238811e-11)
(-0.0057024299 1.4856632e-09 1.6580795e-11)
(-0.0057024298 -7.8003702e-10 8.4241265e-12)
(-0.0057024207 -9.5437324e-10 1.5189377e-11)
(-0.0047754828 2.4527355e-09 1.4539526e-11)
(-0.0047754922 2.6888506e-09 1.2774059e-11)
(-0.0047754922 -2.0326608e-09 5.908321e-12)
(-0.0047754829 -2.2404906e-09 1.1988324e-11)
(-0.0038418581 3.6170525e-09 9.3677202e-12)
(-0.0038418675 3.8944453e-09 9.6431559e-12)
(-0.0038418676 -3.2860904e-09 4.1105553e-12)
(-0.0038418584 -3.5545715e-09 9.3796173e-12)
(-0.0028959355 4.7559819e-09 5.7879507e-12)
(-0.0028959448 5.0992399e-09 7.1214025e-12)
(-0.002895945 -4.5338447e-09 2.7900696e-12)
(-0.0028959359 -4.8860071e-09 7.3032385e-12)
(-0.0019302003 5.8873623e-09 3.2646404e-12)
(-0.0019302098 6.3238437e-09 5.1605436e-12)
(-0.00193021 -5.7889301e-09 1.7931256e-12)
(-0.0019302009 -6.2485333e-09 5.7008515e-12)
(-0.00093590568 7.0272419e-09 1.4774957e-12)
(-0.0009359153 7.5899555e-09 3.6942938e-12)
(-0.00093591565 -7.0621072e-09 1.027663e-12)
(-0.00093590641 -7.6577416e-09 4.499227e-12)
(9.7173421e-05 8.180144e-09 2.2379462e-13)
(9.7163665e-05 8.9091263e-09 2.6433935e-12)
(9.7163182e-05 -8.3524444e-09 4.3455781e-13)
(9.7172504e-05 -9.1198048e-09 3.6233054e-12)
(0.0011812597 9.338278e-09 -6.3181632e-13)
(0.0011812499 1.0280733e-08 1.918064e-12)
(0.0011812493 -9.6468587e-09 -2.0898438e-14)
(0.0011812586 -1.0629443e-08 2.9906449e-12)
(0.0023310293 1.0485009e-08 -1.188212e-12)
(0.0023310197 1.1694821e-08 1.434319e-12)
(0.0023310188 -1.0923835e-08 -3.6106429e-13)
(0.002331028 -1.217275e-08 2.52924e-12)
(0.0035638854 1.159915e-08 -1.5161616e-12)
(0.0035638761 1.3136343e-08 1.1190655e-12)
(0.003563875 -1.215793e-08 -6.0304053e-13)
(0.0035638838 -1.3731353e-08 2.1803073e-12)
(0.0049000518 1.2658402e-08 -1.6706666e-12)
(0.004900043 1.4588673e-08 9.1341621e-13)
(0.0049000417 -1.3323354e-08 -7.6004979e-13)
(0.00490005 -1.528598e-08 1.8995041e-12)
(0.0063625343 1.3641338e-08 -1.6955868e-12)
(0.0063625262 1.6035802e-08 7.7524129e-13)
(0.0063625246 -1.4396073e-08 -8.4504219e-13)
(0.0063625322 -1.6818642e-08 1.6571307e-12)
(0.0079770026 1.4528189e-08 -1.6267683e-12)
(0.0079769955 1.7463173e-08 6.7474465e-13)
(0.0079769935 -1.5354619e-08 -8.7111823e-13)
(0.0079770003 -1.8313473e-08 1.4367517e-12)
(0.0097716363 1.5300806e-08 -1.4955585e-12)
(0.0097716302 1.8857508e-08 5.9325875e-13)
(0.0097716279 -1.6180007e-08 -8.5078479e-13)
(0.0097716338 -1.9756574e-08 1.2298988e-12)
(0.011776958 1.5942237e-08 -1.3269388e-12)
(0.011776954 2.0206099e-08 5.2064172e-13)
(0.011776951 -1.6855223e-08 -7.9681405e-13)
(0.011776956 -2.1135237e-08 1.0358828e-12)
(0.01402567 1.6436221e-08 -1.1418788e-12)
(0.014025667 2.1495857e-08 4.5256575e-13)
(0.014025663 -1.7364603e-08 -7.2049587e-13)
(0.014025667 -2.2436962e-08 8.5580142e-13)
(0.016552487 1.6766831e-08 -9.5554021e-13)
(0.016552485 2.2712366e-08 3.874342e-13)
(0.016552481 -1.7693375e-08 -6.3184931e-13)
(0.016552484 -2.3648474e-08 6.9276049e-13)
(0.019393971 1.69184e-08 -7.7925742e-13)
(0.019393971 2.3839111e-08 3.259641e-13)
(0.019393967 -1.7827436e-08 -5.3919591e-13)
(0.019393968 -2.4754865e-08 5.4937489e-13)
(0.022588359 1.6875663e-08 -6.2092933e-13)
(0.022588361 2.4856939e-08 2.6896375e-13)
(0.022588355 -1.7753448e-08 -4.4886689e-13)
(0.022588356 -2.5738925e-08 4.2658339e-13)
(0.026175357 1.6624262e-08 -4.8456054e-13)
(0.026175361 2.574377e-08 2.1762361e-13)
(0.026175355 -1.7459219e-08 -3.6525319e-13)
(0.026175354 -2.6580757e-08 3.2486941e-13)
(0.030195925 1.6151531e-08 -3.714488e-13)
(0.030195931 2.6474586e-08 1.7281435e-13)
(0.030195925 -1.6934355e-08 -2.9105549e-13)
(0.030195922 -2.7257652e-08 2.4351038e-13)
(0.034692008 1.5447424e-08 -2.8089837e-13)
(0.034692018 2.7021646e-08 1.3484477e-13)
(0.034692011 -1.6171115e-08 -2.2756506e-13)
(0.034692007 -2.7744212e-08 1.8067998e-13)
(0.039706239 1.4505593e-08 -2.1084419e-13)
(0.039706251 2.7354954e-08 1.0351592e-13)
(0.039706243 -1.5165422e-08 -1.749686e-13)
(0.039706238 -2.8012729e-08 1.338936e-13)
(0.045281582 1.3324545e-08 -1.5841142e-13)
(0.045281598 2.7442973e-08 7.8291925e-14)
(0.045281589 -1.3917932e-08 -1.3266121e-13)
(0.045281582 -2.803381e-08 1.0034556e-13)
(0.051460937 1.1908765e-08 -1.2039486e-13)
(0.051460956 2.725356e-08 5.8524268e-14)
(0.051460946 -1.2435106e-08 -9.9529457e-14)
(0.051460938 -2.7777248e-08 7.718676e-14)
(0.058286686 1.0269753e-08 -9.3613282e-14)
(0.058286709 2.6755096e-08 4.3371322e-14)
(0.058286699 -1.0730184e-08 -7.4162132e-14)
(0.05828669 -2.7213124e-08 6.1751928e-14)
(0.065800201 8.4268562e-09 -7.5152588e-14)
(0.065800228 2.5917864e-08 3.1954995e-14)
(0.065800217 -8.8240019e-09 -5.5030544e-14)
(0.065800207 -2.6313149e-08 5.1709097e-14)
(0.074041296 6.4078393e-09 -6.2516447e-14)
(0.074041327 2.4715618e-08 2.3445022e-14)
(0.074041316 -6.7455329e-09 -4.0927491e-14)
(0.074041305 -2.5052206e-08 4.5133929e-14)
(0.083047653 4.2490861e-09 -5.369272e-14)
(0.083047688 2.3127335e-08 1.7113927e-14)
(0.083047676 -4.5320698e-09 -3.0647244e-14)
(0.083047665 -2.341011e-08 4.0543179e-14)
(0.09285421 1.9953671e-09 -4.7149373e-14)
(0.092854249 2.1139134e-08 1.2364891e-14)
(0.092854236 -2.2290043e-09 -2.3157586e-14)
(0.092854225 -2.1373518e-08 3.6874845e-14)
(0.10349253 -3.0089291e-10 -4.1799768e-14)
(0.10349258 1.8746296e-08 8.7301894e-15)
(0.10349256 1.1088465e-10 -1.763752e-14)
(0.10349255 -1.8937978e-08 3.343869e-14)
(0.11499018 -2.5809015e-09 -3.6949664e-14)
(0.11499022 1.5955354e-08 5.8680766e-15)
(0.11499021 2.4286976e-09 -1.3462602e-14)
(0.1149902 -1.6110038e-08 2.9846752e-14)
(0.12737006 -4.7813336e-09 -3.2208628e-14)
(0.12737011 1.2786166e-08 3.5396379e-15)
(0.12737009 4.6612264e-09 -1.0184985e-14)
(0.12737009 -1.2909356e-08 2.5942848e-14)
(0.14064982 -6.8367353e-09 -2.7411279e-14)
(0.14064988 9.2738967e-09 1.5922535e-15)
(0.14064986 6.7433119e-09 -7.4964099e-15)
(0.14064985 -9.3707193e-09 2.1736437e-14)
(0.15484128 -8.6824427e-09 -2.2542022e-14)
(0.15484133 5.4708062e-09 -7.1845817e-17)
(0.15484132 8.6107174e-09 -5.2070866e-15)
(0.15484131 -5.5458767e-09 1.7338776e-14)
(0.16994983 -1.0257886e-08 -1.7691385e-14)
(0.16994989 1.4477364e-09 -1.5008908e-15)
(0.16994987 1.020339e-08 -3.2061132e-15)
(0.16994987 -1.5050797e-09 1.2913264e-14)
(0.18597404 -1.1510148e-08 -1.2991768e-14)
(0.18597409 -2.7048158e-09 -2.7119463e-15)
(0.18597408 1.1468978e-08 -1.4410467e-15)
(0.18597408 2.661805e-09 8.6224765e-15)
(0.20290516 -1.2397569e-08 -8.5802534e-15)
(0.20290522 -6.8761402e-09 -3.7107461e-15)
(0.2029052 1.2366377e-08 1.0820834e-16)
(0.20290521 6.8446785e-09 4.6384393e-15)
(0.22072689 -1.2893109e-08 -4.5764613e-15)
(0.22072695 -1.0935451e-08 -4.5049632e-15)
(0.22072693 1.2869059e-08 1.4369729e-15)
(0.22072694 1.09133e-08 1.0863482e-15)
(0.23941508 -1.2987155e-08 -1.0712302e-15)
(0.23941514 -1.4732905e-08 -5.0937103e-15)
(0.23941512 1.2967838e-08 2.5364125e-15)
(0.23941513 1.4718274e-08 -1.9582486e-15)
(0.25893768 -1.2689377e-08 1.8525552e-15)
(0.25893774 -1.8101729e-08 -5.4943248e-15)
(0.25893772 1.2672714e-08 3.4110292e-15)
(0.25893774 1.8093152e-08 -4.4474535e-15)
(0.27925471 -1.2029244e-08 4.2031086e-15)
(0.27925476 -2.0861913e-08 -5.7165181e-15)
(0.27925474 1.2013391e-08 4.0656847e-15)
(0.27925476 2.0858119e-08 -6.3848556e-15)
(0.30031839 -1.1054787e-08 6.0075412e-15)
(0.30031843 -2.2826115e-08 -5.7879505e-15)
(0.30031841 1.103808e-08 4.5102853e-15)
(0.30031844 2.2825916e-08 -7.8015567e-15)
(0.32207341 -9.8293324e-09 7.3184762e-15)
(0.32207345 -2.3809004e-08 -5.7234142e-15)
(0.32207342 9.8103137e-09 4.7651552e-15)
(0.32207345 2.3811253e-08 -8.7626643e-15)
(0.3444573 -8.4261769e-09 8.2004732e-15)
(0.34445733 -2.3642403e-08 -5.5444445e-15)
(0.3444573 8.4037345e-09 4.8516947e-15)
(0.34445734 2.3646036e-08 -9.3398842e-15)
(0.36740093 -6.9214382e-09 8.7360666e-15)
(0.36740095 -2.2198948e-08 -5.2740725e-15)
(0.36740092 6.8950866e-09 4.7970364e-15)
(0.36740096 2.2203143e-08 -9.6000756e-15)
(0.39082912 -5.3852927e-09 8.997432e-15)
(0.39082913 -1.9423145e-08 -4.9163893e-15)
(0.3908291 5.3555318e-09 4.6320702e-15)
(0.39082914 1.9427586e-08 -9.6134877e-15)
(0.4146614 -3.8731782e-09 9.0753484e-15)
(0.4146614 -1.5367893e-08 -4.4567795e-15)
(0.41466137 3.8422033e-09 4.3925353e-15)
(0.41466141 1.5373289e-08 -9.4559514e-15)
(0.43881278 -2.4330865e-09 9.1461375e-15)
(0.43881277 -1.0299587e-08 -3.9007777e-15)
(0.43881275 2.4069198e-09 4.1541819e-15)
(0.43881278 1.0308764e-08 -9.2608641e-15)
(0.46319471 -1.1584177e-09 9.9048469e-15)
(0.4631947 -5.0093142e-09 -3.4955121e-15)
(0.46319468 1.1434899e-09 4.2226274e-15)
(0.46319471 5.0246801e-09 -9.6557359e-15)
(0.48771603 -3.1737964e-10 1.235703e-14)
(0.48771602 -1.3224621e-09 -3.5106235e-15)
(0.48771601 3.1332314e-10 5.0594214e-15)
(0.48771602 1.3293488e-09 -1.1387702e-14)
)
;

boundaryField
{
    movingWall
    {
        type            fixedValue;
        value           uniform (0.5 0 0);
    }
    CPLReceiveMD
    {
        type            fixedValue;
        value           uniform (-0.0018854291 0 0);
    }
    streamwiseIn
    {
        type            cyclic;
    }
    streamwiseOut
    {
        type            cyclic;
    }
    front
    {
        type            cyclic;
    }
    back
    {
        type            cyclic;
    }
    procBoundary1to0
    {
        type            processor;
        value           nonuniform List<vector> 
240
(
(-0.012288194 -4.6709893e-11 -3.8548784e-10)
(-0.012288194 1.4141321e-10 -3.929452e-11)
(-0.012288194 2.5121837e-11 -4.8514797e-11)
(-0.012288194 -6.2247705e-11 -2.5265278e-11)
(-0.011396825 -2.1985124e-10 -4.8023932e-10)
(-0.011396827 2.149981e-10 -7.3571427e-11)
(-0.011396827 2.6198128e-10 -8.0054409e-11)
(-0.011396826 2.3595974e-11 -5.9565621e-11)
(-0.01074911 -4.098582e-10 -3.8473199e-10)
(-0.010749107 2.6825483e-11 -7.6566886e-11)
(-0.010749106 5.742079e-10 -7.6658378e-11)
(-0.010749112 2.6512011e-10 -6.3552585e-11)
(-0.010381881 -8.8220105e-10 -2.8879983e-10)
(-0.010381877 -3.6227367e-10 -6.8908827e-11)
(-0.010381877 1.1484847e-09 -6.2729666e-11)
(-0.010381881 7.4537784e-10 -5.8582139e-11)
(-0.0098777138 -1.4200547e-09 -1.9807051e-10)
(-0.0098777088 -8.7260189e-10 -5.6570424e-11)
(-0.0098777086 1.7764764e-09 -4.8924705e-11)
(-0.0098777141 1.3572954e-09 -4.8451414e-11)
(-0.009203905 -1.8045345e-09 -1.2963232e-10)
(-0.0092039028 -1.3176978e-09 -4.4380203e-11)
(-0.0092039027 2.2343273e-09 -3.5747136e-11)
(-0.0092039047 1.8728432e-09 -3.8245327e-11)
(-0.0084053717 -1.6164695e-09 -8.288559e-11)
(-0.0084053738 -1.235351e-09 -3.4515375e-11)
(-0.0084053737 2.0996586e-09 -2.5110442e-11)
(-0.008405371 1.8287599e-09 -2.9941135e-11)
(-0.00753235 -9.2108151e-10 -5.2899368e-11)
(-0.0075323557 -6.3000176e-10 -2.7003964e-11)
(-0.0075323556 1.4318342e-09 -1.7392036e-11)
(-0.0075323494 1.2305874e-09 -2.3763104e-11)
(-0.0066239464 9.5239578e-11 -3.4103459e-11)
(-0.0066239544 3.3003977e-10 -2.121299e-11)
(-0.0066239544 4.1400317e-10 -1.2064558e-11)
(-0.0066239461 2.433443e-10 -1.9059718e-11)
(-0.0057024208 1.2582849e-09 -2.2238811e-11)
(-0.0057024299 1.4726151e-09 -1.6580795e-11)
(-0.0057024298 -7.812194e-10 -8.4241265e-12)
(-0.0057024207 -9.58587e-10 -1.5189377e-11)
(-0.0047754828 2.4483964e-09 -1.4539526e-11)
(-0.0047754922 2.674876e-09 -1.2774059e-11)
(-0.0047754922 -2.0327157e-09 -5.908321e-12)
(-0.0047754829 -2.2471114e-09 -1.1988324e-11)
(-0.0038418581 3.6142286e-09 -9.3677202e-12)
(-0.0038418675 3.8810554e-09 -9.6431559e-12)
(-0.0038418676 -3.285665e-09 -4.1105553e-12)
(-0.0038418584 -3.5616776e-09 -9.3796173e-12)
(-0.0028959355 4.7539251e-09 -5.7879507e-12)
(-0.0028959448 5.0874446e-09 -7.1214025e-12)
(-0.002895945 -4.5334768e-09 -2.7900696e-12)
(-0.0028959359 -4.8925518e-09 -7.3032385e-12)
(-0.0019302003 5.8856176e-09 -3.2646404e-12)
(-0.0019302098 6.3141046e-09 -5.1605436e-12)
(-0.00193021 -5.7889336e-09 -1.7931256e-12)
(-0.0019302009 -6.2540214e-09 -5.7008515e-12)
(-0.00093590568 7.0255931e-09 -1.4774957e-12)
(-0.0009359153 7.5823469e-09 -3.6942938e-12)
(-0.00093591565 -7.0625937e-09 -1.027663e-12)
(-0.00093590641 -7.6620471e-09 -4.499227e-12)
(9.717342e-05 8.1785608e-09 -2.2379462e-13)
(9.7163666e-05 8.9034752e-09 -2.6433935e-12)
(9.7163182e-05 -8.3533707e-09 -4.3455781e-13)
(9.7172503e-05 -9.1230365e-09 -3.6233054e-12)
(0.0011812597 9.3368253e-09 6.3181632e-13)
(0.0011812499 1.0276718e-08 -1.918064e-12)
(0.0011812493 -9.6480945e-09 2.0898439e-14)
(0.0011812586 -1.0631845e-08 -2.9906449e-12)
(0.0023310293 1.048378e-08 1.188212e-12)
(0.0023310197 1.1692072e-08 -1.434319e-12)
(0.0023310188 -1.0925211e-08 3.6106429e-13)
(0.002331028 -1.2174589e-08 -2.52924e-12)
(0.0035638854 1.1598257e-08 1.5161616e-12)
(0.0035638761 1.3134492e-08 -1.1190655e-12)
(0.003563875 -1.2159278e-08 6.0304053e-13)
(0.0035638838 -1.3732875e-08 -2.1803073e-12)
(0.0049000518 1.2657917e-08 1.6706666e-12)
(0.004900043 1.4587415e-08 -9.1341621e-13)
(0.0049000417 -1.3324535e-08 7.6004979e-13)
(0.00490005 -1.5287376e-08 -1.8995041e-12)
(0.0063625343 1.3641289e-08 1.6955868e-12)
(0.0063625262 1.6034905e-08 -7.7524129e-13)
(0.0063625246 -1.4397e-08 8.4504219e-13)
(0.0063625322 -1.6820033e-08 -1.6571307e-12)
(0.0079770026 1.4528554e-08 1.6267683e-12)
(0.0079769955 1.7462464e-08 -6.7474465e-13)
(0.0079769935 -1.5355247e-08 8.7111823e-13)
(0.0079770003 -1.8314919e-08 -1.4367517e-12)
(0.0097716363 1.530152e-08 1.4955585e-12)
(0.0097716302 1.8856878e-08 -5.9325875e-13)
(0.0097716279 -1.6180336e-08 8.5078479e-13)
(0.0097716338 -1.9758081e-08 -1.2298988e-12)
(0.011776958 1.594321e-08 1.3269388e-12)
(0.011776954 2.0205492e-08 -5.2064172e-13)
(0.011776951 -1.6855283e-08 7.9681405e-13)
(0.011776956 -2.1136774e-08 -1.0358828e-12)
(0.01402567 1.6437358e-08 1.1418788e-12)
(0.014025667 2.149525e-08 -4.5256575e-13)
(0.014025663 -1.7364443e-08 7.2049587e-13)
(0.014025667 -2.2438485e-08 -8.5580142e-13)
(0.016552487 1.6768039e-08 9.5554021e-13)
(0.016552485 2.2711757e-08 -3.874342e-13)
(0.016552481 -1.7693052e-08 6.3184931e-13)
(0.016552484 -2.3649932e-08 -6.9276049e-13)
(0.019393971 1.6919596e-08 7.7925742e-13)
(0.019393971 2.3838512e-08 -3.259641e-13)
(0.019393967 -1.782701e-08 5.3919591e-13)
(0.019393968 -2.4756215e-08 -5.4937489e-13)
(0.022588359 1.6876785e-08 6.2092933e-13)
(0.022588361 2.4856363e-08 -2.6896375e-13)
(0.022588355 -1.7752971e-08 4.4886689e-13)
(0.022588356 -2.5740137e-08 -4.2658339e-13)
(0.026175357 1.6625268e-08 4.8456054e-13)
(0.026175361 2.5743235e-08 -2.1762361e-13)
(0.026175355 -1.7458733e-08 3.6525319e-13)
(0.026175354 -2.6581809e-08 -3.2486941e-13)
(0.030195925 1.6152396e-08 3.714488e-13)
(0.030195931 2.6474102e-08 -1.7281435e-13)
(0.030195925 -1.6933891e-08 2.9105549e-13)
(0.030195922 -2.7258537e-08 -2.4351038e-13)
(0.034692008 1.5448139e-08 2.8089837e-13)
(0.034692018 2.7021222e-08 -1.3484477e-13)
(0.034692011 -1.6170696e-08 2.2756506e-13)
(0.034692007 -2.7744934e-08 -1.8067998e-13)
(0.039706239 1.4506162e-08 2.1084419e-13)
(0.039706251 2.7354591e-08 -1.0351592e-13)
(0.039706243 -1.5165059e-08 1.749686e-13)
(0.039706238 -2.80133e-08 -1.338936e-13)
(0.045281582 1.3324982e-08 1.5841142e-13)
(0.045281598 2.744267e-08 -7.8291925e-14)
(0.045281589 -1.3917629e-08 1.3266121e-13)
(0.045281582 -2.8034248e-08 -1.0034556e-13)
(0.051460937 1.1909088e-08 1.2039486e-13)
(0.051460956 2.7253312e-08 -5.8524268e-14)
(0.051460946 -1.2434861e-08 9.9529457e-14)
(0.051460938 -2.7777575e-08 -7.718676e-14)
(0.058286686 1.0269984e-08 9.3613282e-14)
(0.058286709 2.6754898e-08 -4.3371322e-14)
(0.058286699 -1.0729991e-08 7.4162132e-14)
(0.05828669 -2.7213363e-08 -6.1751928e-14)
(0.065800201 8.4270155e-09 7.5152588e-14)
(0.065800228 2.5917708e-08 -3.1954995e-14)
(0.065800217 -8.8238544e-09 5.5030544e-14)
(0.065800207 -2.6313319e-08 -5.1709097e-14)
(0.074041296 6.4079464e-09 6.2516447e-14)
(0.074041327 2.4715496e-08 -2.3445022e-14)
(0.074041316 -6.7454231e-09 4.0927491e-14)
(0.074041305 -2.5052328e-08 -4.5133929e-14)
(0.083047653 4.2491575e-09 5.369272e-14)
(0.083047688 2.3127241e-08 -1.7113927e-14)
(0.083047676 -4.5319896e-09 3.0647244e-14)
(0.083047665 -2.3410198e-08 -4.0543179e-14)
(0.09285421 1.9954162e-09 4.7149373e-14)
(0.092854249 2.1139062e-08 -1.2364891e-14)
(0.092854236 -2.2289462e-09 2.3157586e-14)
(0.092854225 -2.1373584e-08 -3.6874845e-14)
(0.10349253 -3.008563e-10 4.1799768e-14)
(0.10349258 1.874624e-08 -8.7301895e-15)
(0.10349256 1.1092671e-10 1.763752e-14)
(0.10349255 -1.8938031e-08 -3.343869e-14)
(0.11499018 -2.5808704e-09 3.6949664e-14)
(0.11499022 1.595531e-08 -5.8680766e-15)
(0.11499021 2.4287286e-09 1.3462602e-14)
(0.1149902 -1.6110084e-08 -2.9846752e-14)
(0.12737006 -4.7813036e-09 3.2208628e-14)
(0.12737011 1.2786131e-08 -3.5396379e-15)
(0.12737009 4.6612502e-09 1.0184985e-14)
(0.12737009 -1.2909399e-08 -2.5942848e-14)
(0.14064982 -6.8367041e-09 2.7411279e-14)
(0.14064988 9.2738684e-09 -1.5922535e-15)
(0.14064986 6.7433309e-09 7.4964099e-15)
(0.14064985 -9.370761e-09 -2.1736437e-14)
(0.15484128 -8.6824096e-09 2.2542022e-14)
(0.15484133 5.4707831e-09 7.1845813e-17)
(0.15484132 8.6107334e-09 5.2070866e-15)
(0.15484131 -5.5459178e-09 -1.7338776e-14)
(0.16994983 -1.0257851e-08 1.7691385e-14)
(0.16994989 1.4477174e-09 1.5008908e-15)
(0.16994987 1.0203405e-08 3.2061132e-15)
(0.16994987 -1.5051199e-09 -1.2913264e-14)
(0.18597404 -1.1510113e-08 1.2991768e-14)
(0.18597409 -2.7048313e-09 2.7119463e-15)